<?xml version="1.0" encoding="UTF-8"?>

<!-- generated on 2024-04-15 23:12:32 by Eclipse SUMO sumo Version 1.19.0
<configuration xmlns:xsi="http://www.w3.org/2001/XMLSchema-instance" xsi:noNamespaceSchemaLocation="http://sumo.dlr.de/xsd/sumoConfiguration.xsd">

    <input>
        <net-file value="./xml_data/test5/test5.net.xml"/>
        <route-files value="./xml_data/test5/test5.rou.xml"/>
    </input>

    <output>
        <tripinfo-output value="./xml_data/test5/test5.tripinfo.output.xml"/>
    </output>

</configuration>
-->

<tripinfos xmlns:xsi="http://www.w3.org/2001/XMLSchema-instance" xsi:noNamespaceSchemaLocation="http://sumo.dlr.de/xsd/tripinfo_file.xsd">
    <tripinfo id="id0.0" depart="0.00" departLane="E0_0" departPos="4.10" departSpeed="13.00" departDelay="0.00" arrival="38.00" arrivalLane="E4_0" arrivalPos="157.66" arrivalSpeed="13.00" duration="38.00" routeLength="1508.78" waitingTime="0.00" waitingCount="0" stopTime="0.00" timeLoss="7.60" rerouteNo="1" devices="tripinfo_id0.0 routing_id0.0" vType="id0" speedFactor="1.06" vaporized=""/>
    <tripinfo id="id0.2" depart="4.00" departLane="E0_1" departPos="4.10" departSpeed="13.00" departDelay="3.20" arrival="42.00" arrivalLane="E4_1" arrivalPos="157.66" arrivalSpeed="13.00" duration="38.00" routeLength="1508.78" waitingTime="0.00" waitingCount="0" stopTime="0.00" timeLoss="7.60" rerouteNo="1" devices="tripinfo_id0.2 routing_id0.2" vType="id0" speedFactor="1.03" vaporized=""/>
    <tripinfo id="id0.1" depart="4.00" departLane="E0_0" departPos="4.10" departSpeed="13.00" departDelay="3.60" arrival="43.00" arrivalLane="E4_1" arrivalPos="157.66" arrivalSpeed="13.00" duration="39.00" routeLength="1508.78" waitingTime="0.00" waitingCount="0" stopTime="0.00" timeLoss="8.80" rerouteNo="1" devices="tripinfo_id0.1 routing_id0.1" vType="id0" speedFactor="1.08" vaporized=""/>
    <tripinfo id="id0.4" depart="2.00" departLane="E0_0" departPos="4.10" departSpeed="13.00" departDelay="0.40" arrival="47.00" arrivalLane="E4_1" arrivalPos="157.66" arrivalSpeed="13.00" duration="45.00" routeLength="1508.78" waitingTime="0.00" waitingCount="0" stopTime="0.00" timeLoss="14.82" rerouteNo="1" devices="tripinfo_id0.4 routing_id0.4" vType="id0" speedFactor="1.09" vaporized=""/>
    <tripinfo id="id0.5" depart="8.00" departLane="E0_0" departPos="4.10" departSpeed="13.00" departDelay="6.00" arrival="50.00" arrivalLane="E4_1" arrivalPos="157.66" arrivalSpeed="13.00" duration="42.00" routeLength="1508.78" waitingTime="0.00" waitingCount="0" stopTime="0.00" timeLoss="11.82" rerouteNo="1" devices="tripinfo_id0.5 routing_id0.5" vType="id0" speedFactor="1.03" vaporized=""/>
    <tripinfo id="id1.0" depart="0.00" departLane="E0_1" departPos="4.10" departSpeed="13.00" departDelay="0.00" arrival="51.00" arrivalLane="E12_0" arrivalPos="157.22" arrivalSpeed="13.00" duration="51.00" routeLength="1513.40" waitingTime="0.00" waitingCount="0" stopTime="0.00" timeLoss="16.55" rerouteNo="1" devices="tripinfo_id1.0 routing_id1.0" vType="id1" speedFactor="0.94" vaporized=""/>
    <tripinfo id="id2.0" depart="2.00" departLane="E0_1" departPos="4.10" departSpeed="13.00" departDelay="2.00" arrival="52.00" arrivalLane="E14_0" arrivalPos="157.34" arrivalSpeed="13.00" duration="50.00" routeLength="1508.35" waitingTime="0.00" waitingCount="0" stopTime="0.00" timeLoss="18.98" rerouteNo="1" devices="tripinfo_id2.0 routing_id2.0" vType="id2" speedFactor="1.01" vaporized=""/>
    <tripinfo id="id0.3" depart="12.00" departLane="E0_0" departPos="4.10" departSpeed="13.00" departDelay="10.80" arrival="54.00" arrivalLane="E4_1" arrivalPos="157.66" arrivalSpeed="13.00" duration="42.00" routeLength="1508.78" waitingTime="0.00" waitingCount="0" stopTime="0.00" timeLoss="6.79" rerouteNo="1" devices="tripinfo_id0.3 routing_id0.3" vType="id0" speedFactor="0.86" vaporized=""/>
    <tripinfo id="id1.2" depart="6.00" departLane="E0_0" departPos="4.10" departSpeed="13.00" departDelay="5.20" arrival="57.00" arrivalLane="E12_0" arrivalPos="157.22" arrivalSpeed="13.00" duration="51.00" routeLength="1513.40" waitingTime="0.00" waitingCount="0" stopTime="0.00" timeLoss="18.90" rerouteNo="1" devices="tripinfo_id1.2 routing_id1.2" vType="id1" speedFactor="1.05" vaporized=""/>
    <tripinfo id="id0.6" depart="16.00" departLane="E0_0" departPos="4.10" departSpeed="13.00" departDelay="13.60" arrival="59.00" arrivalLane="E4_1" arrivalPos="157.66" arrivalSpeed="13.00" duration="43.00" routeLength="1508.78" waitingTime="0.00" waitingCount="0" stopTime="0.00" timeLoss="10.61" rerouteNo="1" devices="tripinfo_id0.6 routing_id0.6" vType="id0" speedFactor="0.94" vaporized=""/>
    <tripinfo id="id1.1" depart="6.00" departLane="E0_1" departPos="4.10" departSpeed="13.00" departDelay="5.60" arrival="60.00" arrivalLane="E12_0" arrivalPos="157.22" arrivalSpeed="13.00" duration="54.00" routeLength="1513.40" waitingTime="0.00" waitingCount="0" stopTime="0.00" timeLoss="16.74" rerouteNo="1" devices="tripinfo_id1.1 routing_id1.1" vType="id1" speedFactor="0.83" vaporized=""/>
    <tripinfo id="id0.7" depart="20.00" departLane="E0_1" departPos="4.10" departSpeed="13.00" departDelay="17.20" arrival="61.00" arrivalLane="E4_1" arrivalPos="157.66" arrivalSpeed="13.00" duration="41.00" routeLength="1508.78" waitingTime="0.00" waitingCount="0" stopTime="0.00" timeLoss="10.74" rerouteNo="1" devices="tripinfo_id0.7 routing_id0.7" vType="id0" speedFactor="1.16" vaporized=""/>
    <tripinfo id="id2.1" depart="8.00" departLane="E0_1" departPos="4.10" departSpeed="13.00" departDelay="7.60" arrival="62.00" arrivalLane="E14_0" arrivalPos="157.34" arrivalSpeed="13.00" duration="54.00" routeLength="1508.35" waitingTime="0.00" waitingCount="0" stopTime="0.00" timeLoss="19.30" rerouteNo="1" devices="tripinfo_id2.1 routing_id2.1" vType="id2" speedFactor="0.89" vaporized=""/>
    <tripinfo id="id2.2" depart="10.00" departLane="E0_1" departPos="4.10" departSpeed="13.00" departDelay="9.20" arrival="65.00" arrivalLane="E14_0" arrivalPos="157.34" arrivalSpeed="13.00" duration="55.00" routeLength="1508.35" waitingTime="0.00" waitingCount="0" stopTime="0.00" timeLoss="22.09" rerouteNo="1" devices="tripinfo_id2.2 routing_id2.2" vType="id2" speedFactor="0.94" vaporized=""/>
    <tripinfo id="id1.3" depart="10.00" departLane="E0_0" departPos="4.10" departSpeed="13.00" departDelay="8.80" arrival="67.00" arrivalLane="E12_0" arrivalPos="157.22" arrivalSpeed="13.00" duration="57.00" routeLength="1513.40" waitingTime="0.00" waitingCount="0" stopTime="0.00" timeLoss="25.85" rerouteNo="1" devices="tripinfo_id1.3 routing_id1.3" vType="id1" speedFactor="1.05" vaporized=""/>
    <tripinfo id="id1.5" depart="12.00" departLane="E0_1" departPos="4.10" departSpeed="13.00" departDelay="10.00" arrival="70.00" arrivalLane="E12_0" arrivalPos="157.22" arrivalSpeed="13.00" duration="58.00" routeLength="1513.40" waitingTime="0.00" waitingCount="0" stopTime="0.00" timeLoss="26.63" rerouteNo="1" devices="tripinfo_id1.5 routing_id1.5" vType="id1" speedFactor="0.99" vaporized=""/>
    <tripinfo id="id1.4" depart="14.00" departLane="E0_1" departPos="4.10" departSpeed="13.00" departDelay="12.40" arrival="74.00" arrivalLane="E12_0" arrivalPos="157.22" arrivalSpeed="13.00" duration="60.00" routeLength="1513.40" waitingTime="0.00" waitingCount="0" stopTime="0.00" timeLoss="27.96" rerouteNo="1" devices="tripinfo_id1.4 routing_id1.4" vType="id1" speedFactor="1.12" vaporized=""/>
    <tripinfo id="id2.3" depart="16.00" departLane="E0_1" departPos="4.10" departSpeed="13.00" departDelay="14.80" arrival="76.00" arrivalLane="E14_0" arrivalPos="157.34" arrivalSpeed="13.00" duration="60.00" routeLength="1508.35" waitingTime="0.00" waitingCount="0" stopTime="0.00" timeLoss="26.64" rerouteNo="1" devices="tripinfo_id2.3 routing_id2.3" vType="id2" speedFactor="0.93" vaporized=""/>
    <tripinfo id="id1.6" depart="14.00" departLane="E0_0" departPos="4.10" departSpeed="13.00" departDelay="11.60" arrival="77.00" arrivalLane="E12_0" arrivalPos="157.22" arrivalSpeed="13.00" duration="63.00" routeLength="1513.40" waitingTime="0.00" waitingCount="0" stopTime="0.00" timeLoss="31.89" rerouteNo="1" devices="tripinfo_id1.6 routing_id1.6" vType="id1" speedFactor="1.02" vaporized=""/>
    <tripinfo id="id2.5" depart="18.00" departLane="E0_1" departPos="4.10" departSpeed="13.00" departDelay="16.00" arrival="79.00" arrivalLane="E14_0" arrivalPos="157.34" arrivalSpeed="13.00" duration="61.00" routeLength="1508.35" waitingTime="0.00" waitingCount="0" stopTime="0.00" timeLoss="28.18" rerouteNo="1" devices="tripinfo_id2.5 routing_id2.5" vType="id2" speedFactor="0.94" vaporized=""/>
    <tripinfo id="id2.6" depart="24.00" departLane="E0_1" departPos="4.10" departSpeed="13.00" departDelay="21.60" arrival="82.00" arrivalLane="E14_0" arrivalPos="157.34" arrivalSpeed="13.00" duration="58.00" routeLength="1508.35" waitingTime="0.00" waitingCount="0" stopTime="0.00" timeLoss="26.47" rerouteNo="1" devices="tripinfo_id2.6 routing_id2.6" vType="id2" speedFactor="0.97" vaporized=""/>
    <tripinfo id="id2.4" depart="18.00" departLane="E0_0" departPos="4.10" departSpeed="13.00" departDelay="16.40" arrival="86.00" arrivalLane="E14_0" arrivalPos="157.34" arrivalSpeed="13.00" duration="68.00" routeLength="1508.35" waitingTime="0.00" waitingCount="0" stopTime="0.00" timeLoss="31.16" rerouteNo="1" devices="tripinfo_id2.4 routing_id2.4" vType="id2" speedFactor="0.88" vaporized=""/>
    <tripinfo id="id1.9" depart="28.00" departLane="E0_1" departPos="4.10" departSpeed="13.00" departDelay="24.40" arrival="86.00" arrivalLane="E12_0" arrivalPos="157.22" arrivalSpeed="13.00" duration="58.00" routeLength="1513.40" waitingTime="1.00" waitingCount="1" stopTime="0.00" timeLoss="25.87" rerouteNo="1" devices="tripinfo_id1.9 routing_id1.9" vType="id1" speedFactor="1.13" vaporized=""/>
    <tripinfo id="id0.11" depart="32.00" departLane="E0_1" departPos="4.10" departSpeed="13.00" departDelay="27.60" arrival="86.00" arrivalLane="E4_1" arrivalPos="157.66" arrivalSpeed="13.00" duration="54.00" routeLength="1508.78" waitingTime="3.00" waitingCount="2" stopTime="0.00" timeLoss="23.80" rerouteNo="1" devices="tripinfo_id0.11 routing_id0.11" vType="id0" speedFactor="1.17" vaporized=""/>
    <tripinfo id="id0.9" depart="26.00" departLane="E0_0" departPos="4.10" departSpeed="13.00" departDelay="22.40" arrival="88.00" arrivalLane="E4_1" arrivalPos="157.66" arrivalSpeed="13.00" duration="62.00" routeLength="1508.78" waitingTime="2.00" waitingCount="1" stopTime="0.00" timeLoss="27.37" rerouteNo="1" devices="tripinfo_id0.9 routing_id0.9" vType="id0" speedFactor="0.87" vaporized=""/>
    <tripinfo id="id2.7" depart="20.00" departLane="E0_0" departPos="4.10" departSpeed="13.00" departDelay="17.20" arrival="89.00" arrivalLane="E14_0" arrivalPos="157.34" arrivalSpeed="13.00" duration="69.00" routeLength="1508.35" waitingTime="0.00" waitingCount="0" stopTime="0.00" timeLoss="33.51" rerouteNo="1" devices="tripinfo_id2.7 routing_id2.7" vType="id2" speedFactor="0.89" vaporized=""/>
    <tripinfo id="id0.10" depart="22.00" departLane="E0_0" departPos="4.10" departSpeed="13.00" departDelay="18.00" arrival="89.00" arrivalLane="E4_0" arrivalPos="157.66" arrivalSpeed="13.00" duration="67.00" routeLength="1508.78" waitingTime="2.00" waitingCount="1" stopTime="0.00" timeLoss="33.93" rerouteNo="1" devices="tripinfo_id0.10 routing_id0.10" vType="id0" speedFactor="0.92" vaporized=""/>
    <tripinfo id="id0.8" depart="24.00" departLane="E0_0" departPos="4.10" departSpeed="13.00" departDelay="20.80" arrival="90.00" arrivalLane="E4_1" arrivalPos="157.66" arrivalSpeed="13.00" duration="66.00" routeLength="1508.78" waitingTime="1.00" waitingCount="1" stopTime="0.00" timeLoss="29.46" rerouteNo="1" devices="tripinfo_id0.8 routing_id0.8" vType="id0" speedFactor="0.83" vaporized=""/>
    <tripinfo id="id1.7" depart="22.00" departLane="E0_1" departPos="4.10" departSpeed="13.00" departDelay="19.20" arrival="91.00" arrivalLane="E12_0" arrivalPos="157.22" arrivalSpeed="13.00" duration="69.00" routeLength="1513.40" waitingTime="0.00" waitingCount="0" stopTime="0.00" timeLoss="36.93" rerouteNo="1" devices="tripinfo_id1.7 routing_id1.7" vType="id1" speedFactor="1.01" vaporized=""/>
    <tripinfo id="id2.8" depart="30.00" departLane="E0_1" departPos="4.10" departSpeed="13.00" departDelay="26.80" arrival="93.00" arrivalLane="E14_0" arrivalPos="157.34" arrivalSpeed="13.00" duration="63.00" routeLength="1508.35" waitingTime="4.00" waitingCount="2" stopTime="0.00" timeLoss="31.00" rerouteNo="1" devices="tripinfo_id2.8 routing_id2.8" vType="id2" speedFactor="1.18" vaporized=""/>
    <tripinfo id="id0.14" depart="38.00" departLane="E0_1" departPos="4.10" departSpeed="13.00" departDelay="32.40" arrival="93.00" arrivalLane="E4_1" arrivalPos="157.66" arrivalSpeed="13.00" duration="55.00" routeLength="1508.78" waitingTime="0.00" waitingCount="0" stopTime="0.00" timeLoss="24.73" rerouteNo="1" devices="tripinfo_id0.14 routing_id0.14" vType="id0" speedFactor="1.03" vaporized=""/>
    <tripinfo id="id0.15" depart="40.00" departLane="E0_1" departPos="4.10" departSpeed="13.00" departDelay="34.00" arrival="95.00" arrivalLane="E4_1" arrivalPos="157.66" arrivalSpeed="13.00" duration="55.00" routeLength="1508.78" waitingTime="0.00" waitingCount="0" stopTime="0.00" timeLoss="23.35" rerouteNo="1" devices="tripinfo_id0.15 routing_id0.15" vType="id0" speedFactor="0.96" vaporized=""/>
    <tripinfo id="id1.8" depart="26.00" departLane="E0_1" departPos="4.10" departSpeed="13.00" departDelay="22.80" arrival="97.00" arrivalLane="E12_0" arrivalPos="157.22" arrivalSpeed="13.00" duration="71.00" routeLength="1513.40" waitingTime="2.00" waitingCount="1" stopTime="0.00" timeLoss="38.26" rerouteNo="1" devices="tripinfo_id1.8 routing_id1.8" vType="id1" speedFactor="0.95" vaporized=""/>
    <tripinfo id="id1.12" depart="36.00" departLane="E0_1" departPos="4.10" departSpeed="13.00" departDelay="31.20" arrival="101.00" arrivalLane="E12_0" arrivalPos="157.22" arrivalSpeed="13.00" duration="65.00" routeLength="1513.40" waitingTime="0.00" waitingCount="0" stopTime="0.00" timeLoss="32.21" rerouteNo="1" devices="tripinfo_id1.12 routing_id1.12" vType="id1" speedFactor="0.97" vaporized=""/>
    <tripinfo id="id2.9" depart="28.00" departLane="E0_0" departPos="4.10" departSpeed="13.00" departDelay="24.40" arrival="104.00" arrivalLane="E14_0" arrivalPos="157.34" arrivalSpeed="13.00" duration="76.00" routeLength="1508.35" waitingTime="5.00" waitingCount="1" stopTime="0.00" timeLoss="44.01" rerouteNo="1" devices="tripinfo_id2.9 routing_id2.9" vType="id2" speedFactor="1.15" vaporized=""/>
    <tripinfo id="id1.11" depart="34.00" departLane="E0_1" departPos="4.10" departSpeed="13.00" departDelay="29.60" arrival="104.00" arrivalLane="E12_0" arrivalPos="157.22" arrivalSpeed="13.00" duration="70.00" routeLength="1513.40" waitingTime="5.00" waitingCount="1" stopTime="0.00" timeLoss="38.94" rerouteNo="1" devices="tripinfo_id1.11 routing_id1.11" vType="id1" speedFactor="1.02" vaporized=""/>
    <tripinfo id="id1.14" depart="44.00" departLane="E0_1" departPos="4.10" departSpeed="13.00" departDelay="38.40" arrival="108.00" arrivalLane="E12_0" arrivalPos="157.22" arrivalSpeed="13.00" duration="64.00" routeLength="1513.40" waitingTime="0.00" waitingCount="0" stopTime="0.00" timeLoss="32.85" rerouteNo="1" devices="tripinfo_id1.14 routing_id1.14" vType="id1" speedFactor="1.04" vaporized=""/>
    <tripinfo id="id0.16" depart="48.00" departLane="E0_1" departPos="4.10" departSpeed="13.00" departDelay="41.60" arrival="108.00" arrivalLane="E4_1" arrivalPos="157.66" arrivalSpeed="13.00" duration="60.00" routeLength="1508.78" waitingTime="0.00" waitingCount="0" stopTime="0.00" timeLoss="25.33" rerouteNo="1" devices="tripinfo_id0.16 routing_id0.16" vType="id0" speedFactor="0.88" vaporized=""/>
    <tripinfo id="id1.10" depart="30.00" departLane="E0_0" departPos="4.10" departSpeed="13.00" departDelay="26.00" arrival="111.00" arrivalLane="E12_0" arrivalPos="157.22" arrivalSpeed="13.00" duration="81.00" routeLength="1513.40" waitingTime="5.00" waitingCount="1" stopTime="0.00" timeLoss="47.66" rerouteNo="1" devices="tripinfo_id1.10 routing_id1.10" vType="id1" speedFactor="0.93" vaporized=""/>
    <tripinfo id="id0.12" depart="34.00" departLane="E0_0" departPos="4.10" departSpeed="13.00" departDelay="29.20" arrival="111.00" arrivalLane="E4_1" arrivalPos="157.66" arrivalSpeed="13.00" duration="77.00" routeLength="1508.78" waitingTime="7.00" waitingCount="2" stopTime="0.00" timeLoss="46.57" rerouteNo="1" devices="tripinfo_id0.12 routing_id0.12" vType="id0" speedFactor="0.99" vaporized=""/>
    <tripinfo id="id2.14" depart="46.00" departLane="E0_1" departPos="4.10" departSpeed="13.00" departDelay="40.40" arrival="113.00" arrivalLane="E14_0" arrivalPos="157.34" arrivalSpeed="13.00" duration="67.00" routeLength="1508.35" waitingTime="0.00" waitingCount="0" stopTime="0.00" timeLoss="34.52" rerouteNo="1" devices="tripinfo_id2.14 routing_id2.14" vType="id2" speedFactor="1.00" vaporized=""/>
    <tripinfo id="id0.18" depart="54.00" departLane="E0_1" departPos="4.10" departSpeed="13.00" departDelay="46.80" arrival="114.00" arrivalLane="E4_1" arrivalPos="157.66" arrivalSpeed="13.00" duration="60.00" routeLength="1508.78" waitingTime="4.00" waitingCount="1" stopTime="0.00" timeLoss="29.82" rerouteNo="1" devices="tripinfo_id0.18 routing_id0.18" vType="id0" speedFactor="1.00" vaporized=""/>
    <tripinfo id="id2.10" depart="32.00" departLane="E0_0" departPos="4.10" departSpeed="13.00" departDelay="28.00" arrival="116.00" arrivalLane="E14_0" arrivalPos="157.34" arrivalSpeed="13.00" duration="84.00" routeLength="1508.35" waitingTime="5.00" waitingCount="1" stopTime="0.00" timeLoss="53.05" rerouteNo="1" devices="tripinfo_id2.10 routing_id2.10" vType="id2" speedFactor="1.01" vaporized=""/>
    <tripinfo id="id0.21" depart="56.00" departLane="E0_1" departPos="4.10" departSpeed="13.00" departDelay="47.60" arrival="116.00" arrivalLane="E4_1" arrivalPos="157.66" arrivalSpeed="13.00" duration="60.00" routeLength="1508.78" waitingTime="4.00" waitingCount="1" stopTime="0.00" timeLoss="29.41" rerouteNo="1" devices="tripinfo_id0.21 routing_id0.21" vType="id0" speedFactor="0.99" vaporized=""/>
    <tripinfo id="id2.16" depart="50.00" departLane="E0_1" departPos="4.10" departSpeed="13.00" departDelay="43.60" arrival="119.00" arrivalLane="E14_0" arrivalPos="157.34" arrivalSpeed="13.00" duration="69.00" routeLength="1508.35" waitingTime="0.00" waitingCount="0" stopTime="0.00" timeLoss="38.06" rerouteNo="1" devices="tripinfo_id2.16 routing_id2.16" vType="id2" speedFactor="1.02" vaporized=""/>
    <tripinfo id="id0.13" depart="40.00" departLane="E0_0" departPos="4.10" departSpeed="13.00" departDelay="34.80" arrival="122.00" arrivalLane="E4_1" arrivalPos="157.66" arrivalSpeed="13.00" duration="82.00" routeLength="1508.78" waitingTime="9.00" waitingCount="4" stopTime="0.00" timeLoss="48.49" rerouteNo="1" devices="tripinfo_id0.13 routing_id0.13" vType="id0" speedFactor="0.90" vaporized=""/>
    <tripinfo id="id2.17" depart="52.00" departLane="E0_1" departPos="4.10" departSpeed="13.00" departDelay="45.20" arrival="122.00" arrivalLane="E14_0" arrivalPos="157.34" arrivalSpeed="13.00" duration="70.00" routeLength="1508.35" waitingTime="4.00" waitingCount="1" stopTime="0.00" timeLoss="39.18" rerouteNo="1" devices="tripinfo_id2.17 routing_id2.17" vType="id2" speedFactor="1.10" vaporized=""/>
    <tripinfo id="id2.11" depart="36.00" departLane="E0_0" departPos="4.10" departSpeed="13.00" departDelay="31.60" arrival="125.00" arrivalLane="E14_0" arrivalPos="157.34" arrivalSpeed="13.00" duration="89.00" routeLength="1508.35" waitingTime="8.00" waitingCount="3" stopTime="0.00" timeLoss="57.84" rerouteNo="1" devices="tripinfo_id2.11 routing_id2.11" vType="id2" speedFactor="1.18" vaporized=""/>
    <tripinfo id="id2.12" depart="38.00" departLane="E0_0" departPos="4.10" departSpeed="13.00" departDelay="33.20" arrival="128.00" arrivalLane="E14_0" arrivalPos="157.34" arrivalSpeed="13.00" duration="90.00" routeLength="1508.35" waitingTime="8.00" waitingCount="3" stopTime="0.00" timeLoss="59.47" rerouteNo="1" devices="tripinfo_id2.12 routing_id2.12" vType="id2" speedFactor="1.10" vaporized=""/>
    <tripinfo id="id1.13" depart="42.00" departLane="E0_1" departPos="4.10" departSpeed="13.00" departDelay="36.80" arrival="128.00" arrivalLane="E12_0" arrivalPos="157.22" arrivalSpeed="13.00" duration="86.00" routeLength="1513.40" waitingTime="8.00" waitingCount="3" stopTime="0.00" timeLoss="53.88" rerouteNo="1" devices="tripinfo_id1.13 routing_id1.13" vType="id1" speedFactor="1.09" vaporized=""/>
    <tripinfo id="id0.22" depart="64.00" departLane="E0_1" departPos="4.10" departSpeed="13.00" departDelay="55.20" arrival="130.00" arrivalLane="E4_1" arrivalPos="157.66" arrivalSpeed="13.00" duration="66.00" routeLength="1508.78" waitingTime="9.00" waitingCount="2" stopTime="0.00" timeLoss="33.82" rerouteNo="1" devices="tripinfo_id0.22 routing_id0.22" vType="id0" speedFactor="0.94" vaporized=""/>
    <tripinfo id="id2.18" depart="58.00" departLane="E0_1" departPos="4.10" departSpeed="13.00" departDelay="50.80" arrival="131.00" arrivalLane="E14_0" arrivalPos="157.34" arrivalSpeed="13.00" duration="73.00" routeLength="1508.35" waitingTime="5.00" waitingCount="2" stopTime="0.00" timeLoss="42.04" rerouteNo="1" devices="tripinfo_id2.18 routing_id2.18" vType="id2" speedFactor="1.08" vaporized=""/>
    <tripinfo id="id1.15" depart="42.00" departLane="E0_0" departPos="4.10" departSpeed="13.00" departDelay="36.00" arrival="132.00" arrivalLane="E12_0" arrivalPos="157.22" arrivalSpeed="13.00" duration="90.00" routeLength="1513.40" waitingTime="8.00" waitingCount="4" stopTime="0.00" timeLoss="58.86" rerouteNo="1" devices="tripinfo_id1.15 routing_id1.15" vType="id1" speedFactor="1.04" vaporized=""/>
    <tripinfo id="id0.19" depart="56.00" departLane="E0_0" departPos="4.10" departSpeed="13.00" departDelay="48.40" arrival="132.00" arrivalLane="E4_1" arrivalPos="157.66" arrivalSpeed="13.00" duration="76.00" routeLength="1508.78" waitingTime="8.00" waitingCount="3" stopTime="0.00" timeLoss="45.68" rerouteNo="1" devices="tripinfo_id0.19 routing_id0.19" vType="id0" speedFactor="1.00" vaporized=""/>
    <tripinfo id="id0.17" depart="46.00" departLane="E0_0" departPos="4.10" departSpeed="13.00" departDelay="39.20" arrival="135.00" arrivalLane="E4_0" arrivalPos="157.66" arrivalSpeed="13.00" duration="89.00" routeLength="1508.78" waitingTime="13.00" waitingCount="4" stopTime="0.00" timeLoss="53.52" rerouteNo="1" devices="tripinfo_id0.17 routing_id0.17" vType="id0" speedFactor="0.85" vaporized=""/>
    <tripinfo id="id2.13" depart="44.00" departLane="E0_0" departPos="4.10" departSpeed="13.00" departDelay="38.80" arrival="136.00" arrivalLane="E14_0" arrivalPos="157.34" arrivalSpeed="13.00" duration="92.00" routeLength="1508.35" waitingTime="10.00" waitingCount="5" stopTime="0.00" timeLoss="61.01" rerouteNo="1" devices="tripinfo_id2.13 routing_id2.13" vType="id2" speedFactor="1.09" vaporized=""/>
    <tripinfo id="id1.18" depart="60.00" departLane="E0_1" departPos="4.10" departSpeed="13.00" departDelay="52.80" arrival="136.00" arrivalLane="E12_0" arrivalPos="157.22" arrivalSpeed="13.00" duration="76.00" routeLength="1513.40" waitingTime="6.00" waitingCount="2" stopTime="0.00" timeLoss="43.06" rerouteNo="1" devices="tripinfo_id1.18 routing_id1.18" vType="id1" speedFactor="1.14" vaporized=""/>
    <tripinfo id="id0.23" depart="68.00" departLane="E0_1" departPos="4.10" departSpeed="13.00" departDelay="58.80" arrival="138.00" arrivalLane="E4_1" arrivalPos="157.66" arrivalSpeed="13.00" duration="70.00" routeLength="1508.78" waitingTime="8.00" waitingCount="3" stopTime="0.00" timeLoss="39.81" rerouteNo="1" devices="tripinfo_id0.23 routing_id0.23" vType="id0" speedFactor="1.02" vaporized=""/>
    <tripinfo id="id2.19" depart="62.00" departLane="E0_1" departPos="4.10" departSpeed="13.00" departDelay="54.40" arrival="140.00" arrivalLane="E14_0" arrivalPos="157.34" arrivalSpeed="13.00" duration="78.00" routeLength="1508.35" waitingTime="11.00" waitingCount="2" stopTime="0.00" timeLoss="46.00" rerouteNo="1" devices="tripinfo_id2.19 routing_id2.19" vType="id2" speedFactor="1.12" vaporized=""/>
    <tripinfo id="id0.24" depart="70.00" departLane="E0_1" departPos="4.10" departSpeed="13.00" departDelay="60.40" arrival="140.00" arrivalLane="E4_1" arrivalPos="157.66" arrivalSpeed="13.00" duration="70.00" routeLength="1508.78" waitingTime="8.00" waitingCount="3" stopTime="0.00" timeLoss="39.79" rerouteNo="1" devices="tripinfo_id0.24 routing_id0.24" vType="id0" speedFactor="1.02" vaporized=""/>
    <tripinfo id="id0.25" depart="72.00" departLane="E0_1" departPos="4.10" departSpeed="13.00" departDelay="62.00" arrival="142.00" arrivalLane="E4_1" arrivalPos="157.66" arrivalSpeed="13.00" duration="70.00" routeLength="1508.78" waitingTime="8.00" waitingCount="3" stopTime="0.00" timeLoss="38.93" rerouteNo="1" devices="tripinfo_id0.25 routing_id0.25" vType="id0" speedFactor="0.97" vaporized=""/>
    <tripinfo id="id2.15" depart="48.00" departLane="E0_0" departPos="4.10" departSpeed="13.00" departDelay="42.00" arrival="143.00" arrivalLane="E14_0" arrivalPos="157.34" arrivalSpeed="13.00" duration="95.00" routeLength="1508.35" waitingTime="15.00" waitingCount="4" stopTime="0.00" timeLoss="60.71" rerouteNo="1" devices="tripinfo_id2.15 routing_id2.15" vType="id2" speedFactor="0.90" vaporized=""/>
    <tripinfo id="id0.20" depart="58.00" departLane="E0_0" departPos="4.10" departSpeed="13.00" departDelay="50.00" arrival="144.00" arrivalLane="E4_1" arrivalPos="157.66" arrivalSpeed="13.00" duration="86.00" routeLength="1508.78" waitingTime="15.00" waitingCount="5" stopTime="0.00" timeLoss="52.38" rerouteNo="1" devices="tripinfo_id0.20 routing_id0.20" vType="id0" speedFactor="0.90" vaporized=""/>
    <tripinfo id="id1.16" depart="50.00" departLane="E0_0" departPos="4.10" departSpeed="13.00" departDelay="43.60" arrival="147.00" arrivalLane="E12_0" arrivalPos="157.22" arrivalSpeed="13.00" duration="97.00" routeLength="1513.40" waitingTime="15.00" waitingCount="5" stopTime="0.00" timeLoss="59.92" rerouteNo="1" devices="tripinfo_id1.16 routing_id1.16" vType="id1" speedFactor="0.85" vaporized=""/>
    <tripinfo id="id0.27" depart="76.00" departLane="E0_1" departPos="4.10" departSpeed="13.00" departDelay="65.20" arrival="147.00" arrivalLane="E4_1" arrivalPos="157.66" arrivalSpeed="13.00" duration="71.00" routeLength="1508.78" waitingTime="13.00" waitingCount="2" stopTime="0.00" timeLoss="40.59" rerouteNo="1" devices="tripinfo_id0.27 routing_id0.27" vType="id0" speedFactor="1.09" vaporized=""/>
    <tripinfo id="id0.26" depart="80.00" departLane="E0_1" departPos="4.10" departSpeed="13.00" departDelay="69.60" arrival="150.00" arrivalLane="E4_1" arrivalPos="157.66" arrivalSpeed="13.00" duration="70.00" routeLength="1508.78" waitingTime="14.00" waitingCount="2" stopTime="0.00" timeLoss="39.72" rerouteNo="1" devices="tripinfo_id0.26 routing_id0.26" vType="id0" speedFactor="1.01" vaporized=""/>
    <tripinfo id="id1.21" depart="66.00" departLane="E0_1" departPos="4.10" departSpeed="13.00" departDelay="57.60" arrival="151.00" arrivalLane="E12_0" arrivalPos="157.22" arrivalSpeed="13.00" duration="85.00" routeLength="1513.40" waitingTime="8.00" waitingCount="3" stopTime="0.00" timeLoss="48.95" rerouteNo="1" devices="tripinfo_id1.21 routing_id1.21" vType="id1" speedFactor="0.88" vaporized=""/>
    <tripinfo id="id1.17" depart="52.00" departLane="E0_0" departPos="4.10" departSpeed="13.00" departDelay="45.20" arrival="154.00" arrivalLane="E12_0" arrivalPos="157.22" arrivalSpeed="13.00" duration="102.00" routeLength="1513.40" waitingTime="17.00" waitingCount="5" stopTime="0.00" timeLoss="70.89" rerouteNo="1" devices="tripinfo_id1.17 routing_id1.17" vType="id1" speedFactor="1.17" vaporized=""/>
    <tripinfo id="id1.19" depart="54.00" departLane="E0_0" departPos="4.10" departSpeed="13.00" departDelay="46.40" arrival="157.00" arrivalLane="E12_0" arrivalPos="157.22" arrivalSpeed="13.00" duration="103.00" routeLength="1513.40" waitingTime="17.00" waitingCount="5" stopTime="0.00" timeLoss="71.90" rerouteNo="1" devices="tripinfo_id1.19 routing_id1.19" vType="id1" speedFactor="1.02" vaporized=""/>
    <tripinfo id="id1.20" depart="60.00" departLane="E0_0" departPos="4.10" departSpeed="13.00" departDelay="52.00" arrival="160.00" arrivalLane="E12_0" arrivalPos="157.22" arrivalSpeed="13.00" duration="100.00" routeLength="1513.40" waitingTime="14.00" waitingCount="5" stopTime="0.00" timeLoss="67.16" rerouteNo="1" devices="tripinfo_id1.20 routing_id1.20" vType="id1" speedFactor="0.97" vaporized=""/>
    <tripinfo id="id0.29" depart="86.00" departLane="E0_1" departPos="4.10" departSpeed="13.00" departDelay="74.40" arrival="160.00" arrivalLane="E4_1" arrivalPos="157.66" arrivalSpeed="13.00" duration="74.00" routeLength="1508.78" waitingTime="13.00" waitingCount="2" stopTime="0.00" timeLoss="43.08" rerouteNo="1" devices="tripinfo_id0.29 routing_id0.29" vType="id0" speedFactor="0.98" vaporized=""/>
    <tripinfo id="id2.20" depart="62.00" departLane="E0_0" departPos="4.10" departSpeed="13.00" departDelay="54.00" arrival="163.00" arrivalLane="E14_0" arrivalPos="157.34" arrivalSpeed="13.00" duration="101.00" routeLength="1508.35" waitingTime="17.00" waitingCount="3" stopTime="0.00" timeLoss="69.95" rerouteNo="1" devices="tripinfo_id2.20 routing_id2.20" vType="id2" speedFactor="1.02" vaporized=""/>
    <tripinfo id="id0.31" depart="92.00" departLane="E0_1" departPos="4.10" departSpeed="13.00" departDelay="79.60" arrival="163.00" arrivalLane="E4_1" arrivalPos="157.66" arrivalSpeed="13.00" duration="71.00" routeLength="1508.78" waitingTime="10.00" waitingCount="3" stopTime="0.00" timeLoss="38.25" rerouteNo="1" devices="tripinfo_id0.31 routing_id0.31" vType="id0" speedFactor="0.92" vaporized=""/>