<?xml version="1.0" encoding="UTF-8"?>

<!-- generated on 2024-04-13 15:35:54 by Eclipse SUMO GUI Version 1.19.0
<configuration xmlns:xsi="http://www.w3.org/2001/XMLSchema-instance" xsi:noNamespaceSchemaLocation="http://sumo.dlr.de/xsd/sumoConfiguration.xsd">

    <input>
        <net-file value="test0.net.xml"/>
        <route-files value="test0.rou.xml"/>
    </input>

    <output>
        <fcd-output value="test0.output.xml"/>
        <tripinfo-output value="test0.tripinfo.output.xml"/>
        <statistic-output value="test0.statistic.output.xml"/>
    </output>

    <time>
        <begin value="0"/>
        <end value="60"/>
    </time>

</configuration>
-->

<tripinfos xmlns:xsi="http://www.w3.org/2001/XMLSchema-instance" xsi:noNamespaceSchemaLocation="http://sumo.dlr.de/xsd/tripinfo_file.xsd">
    <tripinfo id="t_2" depart="0.00" departLane="-E3_0" departPos="5.10" departSpeed="0.00" departDelay="0.00" arrival="10.00" arrivalLane="E2_0" arrivalPos="44.22" arrivalSpeed="13.86" duration="10.00" routeLength="87.00" waitingTime="0.00" waitingCount="0" stopTime="0.00" timeLoss="3.52" rerouteNo="0" devices="tripinfo_t_2 routing_t_2 fcd_t_2" vType="DEFAULT_VEHTYPE" speedFactor="1.01" vaporized=""/>
    <tripinfo id="t_5" depart="0.00" departLane="-E2_0" departPos="5.10" departSpeed="0.00" departDelay="0.00" arrival="10.00" arrivalLane="E3_0" arrivalPos="33.38" arrivalSpeed="10.49" duration="10.00" routeLength="86.99" waitingTime="0.00" waitingCount="0" stopTime="0.00" timeLoss="2.45" rerouteNo="0" devices="tripinfo_t_5 routing_t_5 fcd_t_5" vType="DEFAULT_VEHTYPE" speedFactor="0.83" vaporized=""/>
    <tripinfo id="t_3" depart="3.00" departLane="-E3_0" departPos="5.10" departSpeed="0.00" departDelay="3.00" arrival="16.00" arrivalLane="-E0_0" arrivalPos="68.31" arrivalSpeed="14.38" duration="13.00" routeLength="110.88" waitingTime="0.00" waitingCount="0" stopTime="0.00" timeLoss="4.95" rerouteNo="0" devices="tripinfo_t_3 routing_t_3 fcd_t_3" vType="DEFAULT_VEHTYPE" speedFactor="1.08" vaporized=""/>
    <tripinfo id="t_1" depart="0.00" departLane="-E1_0" departPos="5.10" departSpeed="0.00" departDelay="0.00" arrival="54.00" arrivalLane="-E0_0" arrivalPos="68.31" arrivalSpeed="11.80" duration="54.00" routeLength="169.12" waitingTime="31.00" waitingCount="1" stopTime="0.00" timeLoss="40.44" rerouteNo="0" devices="tripinfo_t_1 routing_t_1 fcd_t_1" vType="DEFAULT_VEHTYPE" speedFactor="0.94" vaporized=""/>
    <tripinfo id="t_0" depart="0.00" departLane="E0_0" departPos="5.10" departSpeed="0.00" departDelay="0.00" arrival="55.00" arrivalLane="E2_0" arrivalPos="44.22" arrivalSpeed="14.03" duration="55.00" routeLength="121.69" waitingTime="37.00" waitingCount="2" stopTime="0.00" timeLoss="45.71" rerouteNo="0" devices="tripinfo_t_0 routing_t_0 fcd_t_0" vType="DEFAULT_VEHTYPE" speedFactor="1.06" vaporized=""/>
    <tripinfo id="t_4" depart="3.00" departLane="-E1_0" departPos="5.10" departSpeed="0.00" departDelay="3.00" arrival="59.00" arrivalLane="E3_0" arrivalPos="33.38" arrivalSpeed="12.72" duration="56.00" routeLength="133.93" waitingTime="33.00" waitingCount="2" stopTime="0.00" timeLoss="45.66" rerouteNo="0" devices="tripinfo_t_4 routing_t_4 fcd_t_4" vType="DEFAULT_VEHTYPE" speedFactor="1.03" vaporized=""/>
</tripinfos>
