<?xml version="1.0" encoding="UTF-8"?>

<!-- generated on 2024-04-15 15:01:45 by Eclipse SUMO sumo Version 1.19.0
<configuration xmlns:xsi="http://www.w3.org/2001/XMLSchema-instance" xsi:noNamespaceSchemaLocation="http://sumo.dlr.de/xsd/sumoConfiguration.xsd">

    <input>
        <net-file value="./xml_data/test1/test1.net.xml"/>
        <route-files value="./xml_data/test1/test1.rou.xml"/>
    </input>

    <output>
        <tripinfo-output value="./xml_data/test1/test1.tripinfo.output.xml"/>
        <statistic-output value="./xml_data/test1/test1.statistic.output.xml"/>
    </output>

</configuration>
-->

<tripinfos xmlns:xsi="http://www.w3.org/2001/XMLSchema-instance" xsi:noNamespaceSchemaLocation="http://sumo.dlr.de/xsd/tripinfo_file.xsd">
    <tripinfo id="id0.0" depart="0.00" departLane="E0_2" departPos="5.10" departSpeed="13.89" departDelay="0.00" arrival="60.00" arrivalLane="E3_0" arrivalPos="245.77" arrivalSpeed="12.75" duration="60.00" routeLength="835.16" waitingTime="0.00" waitingCount="0" stopTime="0.00" timeLoss="2.54" rerouteNo="1" devices="tripinfo_id0.0 routing_id0.0" vType="DEFAULT_VEHTYPE" speedFactor="1.06" vaporized=""/>
    <tripinfo id="id0.5" depart="2.00" departLane="E0_0" departPos="5.10" departSpeed="13.89" departDelay="1.00" arrival="61.00" arrivalLane="E3_1" arrivalPos="245.77" arrivalSpeed="13.22" duration="59.00" routeLength="835.16" waitingTime="0.00" waitingCount="0" stopTime="0.00" timeLoss="3.02" rerouteNo="1" devices="tripinfo_id0.5 routing_id0.5" vType="DEFAULT_VEHTYPE" speedFactor="1.08" vaporized=""/>
    <tripinfo id="id0.4" depart="2.00" departLane="E0_2" departPos="5.10" departSpeed="13.89" departDelay="1.20" arrival="64.00" arrivalLane="E3_1" arrivalPos="245.77" arrivalSpeed="13.34" duration="62.00" routeLength="835.16" waitingTime="0.00" waitingCount="0" stopTime="0.00" timeLoss="3.34" rerouteNo="1" devices="tripinfo_id0.4 routing_id0.4" vType="DEFAULT_VEHTYPE" speedFactor="1.03" vaporized=""/>
    <tripinfo id="id0.12" depart="4.00" departLane="E0_0" departPos="5.10" departSpeed="13.89" departDelay="1.60" arrival="65.00" arrivalLane="E3_0" arrivalPos="245.77" arrivalSpeed="13.39" duration="61.00" routeLength="835.16" waitingTime="0.00" waitingCount="0" stopTime="0.00" timeLoss="2.70" rerouteNo="1" devices="tripinfo_id0.12 routing_id0.12" vType="DEFAULT_VEHTYPE" speedFactor="1.05" vaporized=""/>
    <tripinfo id="id0.3" depart="6.00" departLane="E0_0" departPos="5.10" departSpeed="13.89" departDelay="5.40" arrival="66.00" arrivalLane="E3_0" arrivalPos="245.77" arrivalSpeed="13.64" duration="60.00" routeLength="835.16" waitingTime="0.00" waitingCount="0" stopTime="0.00" timeLoss="4.26" rerouteNo="1" devices="tripinfo_id0.3 routing_id0.3" vType="DEFAULT_VEHTYPE" speedFactor="1.08" vaporized=""/>
    <tripinfo id="id0.6" depart="4.00" departLane="E0_2" departPos="5.10" departSpeed="13.89" departDelay="2.80" arrival="66.00" arrivalLane="E3_1" arrivalPos="245.77" arrivalSpeed="13.38" duration="62.00" routeLength="835.16" waitingTime="0.00" waitingCount="0" stopTime="0.00" timeLoss="4.05" rerouteNo="1" devices="tripinfo_id0.6 routing_id0.6" vType="DEFAULT_VEHTYPE" speedFactor="1.05" vaporized=""/>
    <tripinfo id="id0.7" depart="6.00" departLane="E0_2" departPos="5.10" departSpeed="13.89" departDelay="4.60" arrival="68.00" arrivalLane="E3_1" arrivalPos="245.77" arrivalSpeed="13.31" duration="62.00" routeLength="835.16" waitingTime="0.00" waitingCount="0" stopTime="0.00" timeLoss="2.41" rerouteNo="1" devices="tripinfo_id0.7 routing_id0.7" vType="DEFAULT_VEHTYPE" speedFactor="1.01" vaporized=""/>
    <tripinfo id="id0.15" depart="8.00" departLane="E0_0" departPos="5.10" departSpeed="13.89" departDelay="5.00" arrival="68.00" arrivalLane="E3_0" arrivalPos="245.77" arrivalSpeed="12.70" duration="60.00" routeLength="835.16" waitingTime="0.00" waitingCount="0" stopTime="0.00" timeLoss="4.83" rerouteNo="1" devices="tripinfo_id0.15 routing_id0.15" vType="DEFAULT_VEHTYPE" speedFactor="1.10" vaporized=""/>
    <tripinfo id="id0.10" depart="8.00" departLane="E0_2" departPos="5.10" departSpeed="13.89" departDelay="6.00" arrival="69.00" arrivalLane="E3_2" arrivalPos="245.77" arrivalSpeed="12.86" duration="61.00" routeLength="835.16" waitingTime="0.00" waitingCount="0" stopTime="0.00" timeLoss="5.57" rerouteNo="1" devices="tripinfo_id0.10 routing_id0.10" vType="DEFAULT_VEHTYPE" speedFactor="1.09" vaporized=""/>
    <tripinfo id="id0.1" depart="1.00" departLane="E0_1" departPos="5.10" departSpeed="13.89" departDelay="0.80" arrival="71.00" arrivalLane="E3_0" arrivalPos="245.77" arrivalSpeed="13.23" duration="70.00" routeLength="835.16" waitingTime="0.00" waitingCount="0" stopTime="0.00" timeLoss="9.40" rerouteNo="1" devices="tripinfo_id0.1 routing_id0.1" vType="DEFAULT_VEHTYPE" speedFactor="1.00" vaporized=""/>
    <tripinfo id="id0.2" depart="3.00" departLane="E0_1" departPos="5.10" departSpeed="13.89" departDelay="2.60" arrival="73.00" arrivalLane="E3_0" arrivalPos="245.77" arrivalSpeed="13.75" duration="70.00" routeLength="835.16" waitingTime="0.00" waitingCount="0" stopTime="0.00" timeLoss="9.84" rerouteNo="1" devices="tripinfo_id0.2 routing_id0.2" vType="DEFAULT_VEHTYPE" speedFactor="1.01" vaporized=""/>
    <tripinfo id="id0.8" depart="10.00" departLane="E0_2" departPos="5.10" departSpeed="13.89" departDelay="8.40" arrival="73.00" arrivalLane="E3_1" arrivalPos="245.77" arrivalSpeed="13.38" duration="63.00" routeLength="835.16" waitingTime="0.00" waitingCount="0" stopTime="0.00" timeLoss="2.84" rerouteNo="1" devices="tripinfo_id0.8 routing_id0.8" vType="DEFAULT_VEHTYPE" speedFactor="1.00" vaporized=""/>
    <tripinfo id="id0.11" depart="5.00" departLane="E0_1" departPos="5.10" departSpeed="13.89" departDelay="2.80" arrival="75.00" arrivalLane="E3_0" arrivalPos="245.77" arrivalSpeed="13.69" duration="70.00" routeLength="835.16" waitingTime="0.00" waitingCount="0" stopTime="0.00" timeLoss="10.55" rerouteNo="1" devices="tripinfo_id0.11 routing_id0.11" vType="DEFAULT_VEHTYPE" speedFactor="1.03" vaporized=""/>
    <tripinfo id="id0.19" depart="12.00" departLane="E0_2" departPos="5.10" departSpeed="13.89" departDelay="8.20" arrival="75.00" arrivalLane="E3_1" arrivalPos="245.77" arrivalSpeed="12.63" duration="63.00" routeLength="835.16" waitingTime="0.00" waitingCount="0" stopTime="0.00" timeLoss="10.85" rerouteNo="1" devices="tripinfo_id0.19 routing_id0.19" vType="DEFAULT_VEHTYPE" speedFactor="1.16" vaporized=""/>
    <tripinfo id="id0.9" depart="7.00" departLane="E0_1" departPos="5.10" departSpeed="13.89" departDelay="5.20" arrival="76.00" arrivalLane="E3_0" arrivalPos="245.77" arrivalSpeed="13.47" duration="69.00" routeLength="835.16" waitingTime="0.00" waitingCount="0" stopTime="0.00" timeLoss="8.73" rerouteNo="1" devices="tripinfo_id0.9 routing_id0.9" vType="DEFAULT_VEHTYPE" speedFactor="1.00" vaporized=""/>
    <tripinfo id="id0.16" depart="14.00" departLane="E0_2" departPos="5.10" departSpeed="13.89" departDelay="10.80" arrival="78.00" arrivalLane="E3_1" arrivalPos="245.77" arrivalSpeed="13.39" duration="64.00" routeLength="835.16" waitingTime="0.00" waitingCount="0" stopTime="0.00" timeLoss="3.06" rerouteNo="1" devices="tripinfo_id0.16 routing_id0.16" vType="DEFAULT_VEHTYPE" speedFactor="1.00" vaporized=""/>
    <tripinfo id="id0.18" depart="10.00" departLane="E0_0" departPos="5.10" departSpeed="13.89" departDelay="6.40" arrival="78.00" arrivalLane="E3_0" arrivalPos="245.77" arrivalSpeed="13.72" duration="68.00" routeLength="835.16" waitingTime="0.00" waitingCount="0" stopTime="0.00" timeLoss="7.64" rerouteNo="1" devices="tripinfo_id0.18 routing_id0.18" vType="DEFAULT_VEHTYPE" speedFactor="1.00" vaporized=""/>
    <tripinfo id="id0.35" depart="16.00" departLane="E0_2" departPos="5.10" departSpeed="13.89" departDelay="9.00" arrival="79.00" arrivalLane="E3_1" arrivalPos="245.77" arrivalSpeed="13.23" duration="63.00" routeLength="835.16" waitingTime="0.00" waitingCount="0" stopTime="0.00" timeLoss="4.02" rerouteNo="1" devices="tripinfo_id0.35 routing_id0.35" vType="DEFAULT_VEHTYPE" speedFactor="1.02" vaporized=""/>
    <tripinfo id="id0.14" depart="9.00" departLane="E0_1" departPos="5.10" departSpeed="13.89" departDelay="6.20" arrival="80.00" arrivalLane="E3_0" arrivalPos="245.77" arrivalSpeed="13.14" duration="71.00" routeLength="835.16" waitingTime="0.00" waitingCount="0" stopTime="0.00" timeLoss="10.43" rerouteNo="1" devices="tripinfo_id0.14 routing_id0.14" vType="DEFAULT_VEHTYPE" speedFactor="1.00" vaporized=""/>
    <tripinfo id="id0.25" depart="18.00" departLane="E0_2" departPos="5.10" departSpeed="13.89" departDelay="13.00" arrival="81.00" arrivalLane="E3_1" arrivalPos="245.77" arrivalSpeed="12.83" duration="63.00" routeLength="835.16" waitingTime="0.00" waitingCount="0" stopTime="0.00" timeLoss="2.77" rerouteNo="1" devices="tripinfo_id0.25 routing_id0.25" vType="DEFAULT_VEHTYPE" speedFactor="1.00" vaporized=""/>
    <tripinfo id="id0.23" depart="16.00" departLane="E0_0" departPos="5.10" departSpeed="13.89" departDelay="11.40" arrival="82.00" arrivalLane="E3_0" arrivalPos="245.77" arrivalSpeed="12.61" duration="66.00" routeLength="835.16" waitingTime="0.00" waitingCount="0" stopTime="0.00" timeLoss="5.42" rerouteNo="1" devices="tripinfo_id0.23 routing_id0.23" vType="DEFAULT_VEHTYPE" speedFactor="1.00" vaporized=""/>
    <tripinfo id="id0.30" depart="20.00" departLane="E0_2" departPos="5.10" departSpeed="13.89" departDelay="14.00" arrival="83.00" arrivalLane="E3_1" arrivalPos="245.77" arrivalSpeed="13.63" duration="63.00" routeLength="835.16" waitingTime="0.00" waitingCount="0" stopTime="0.00" timeLoss="11.62" rerouteNo="1" devices="tripinfo_id0.30 routing_id0.30" vType="DEFAULT_VEHTYPE" speedFactor="1.18" vaporized=""/>
    <tripinfo id="id0.17" depart="11.00" departLane="E0_1" departPos="5.10" departSpeed="13.89" departDelay="7.60" arrival="84.00" arrivalLane="E3_0" arrivalPos="245.77" arrivalSpeed="13.89" duration="73.00" routeLength="835.16" waitingTime="0.00" waitingCount="0" stopTime="0.00" timeLoss="12.12" rerouteNo="1" devices="tripinfo_id0.17 routing_id0.17" vType="DEFAULT_VEHTYPE" speedFactor="1.00" vaporized=""/>
    <tripinfo id="id0.24" depart="18.00" departLane="E0_0" departPos="5.10" departSpeed="13.89" departDelay="13.20" arrival="85.00" arrivalLane="E3_0" arrivalPos="245.77" arrivalSpeed="13.70" duration="67.00" routeLength="835.16" waitingTime="0.00" waitingCount="0" stopTime="0.00" timeLoss="11.88" rerouteNo="1" devices="tripinfo_id0.24 routing_id0.24" vType="DEFAULT_VEHTYPE" speedFactor="1.09" vaporized=""/>
    <tripinfo id="id0.36" depart="22.00" departLane="E0_2" departPos="5.10" departSpeed="13.89" departDelay="14.80" arrival="85.00" arrivalLane="E3_1" arrivalPos="245.77" arrivalSpeed="13.54" duration="63.00" routeLength="835.16" waitingTime="0.00" waitingCount="0" stopTime="0.00" timeLoss="3.10" rerouteNo="1" devices="tripinfo_id0.36 routing_id0.36" vType="DEFAULT_VEHTYPE" speedFactor="1.01" vaporized=""/>
    <tripinfo id="id0.26" depart="20.00" departLane="E0_0" departPos="5.10" departSpeed="13.89" departDelay="14.80" arrival="87.00" arrivalLane="E3_0" arrivalPos="245.77" arrivalSpeed="13.35" duration="67.00" routeLength="835.16" waitingTime="0.00" waitingCount="0" stopTime="0.00" timeLoss="12.12" rerouteNo="1" devices="tripinfo_id0.26 routing_id0.26" vType="DEFAULT_VEHTYPE" speedFactor="1.10" vaporized=""/>
    <tripinfo id="id0.31" depart="26.00" departLane="E0_2" departPos="5.10" departSpeed="13.89" departDelay="19.80" arrival="87.00" arrivalLane="E3_2" arrivalPos="245.77" arrivalSpeed="13.57" duration="61.00" routeLength="835.16" waitingTime="0.00" waitingCount="0" stopTime="0.00" timeLoss="8.61" rerouteNo="1" devices="tripinfo_id0.31 routing_id0.31" vType="DEFAULT_VEHTYPE" speedFactor="1.15" vaporized=""/>
    <tripinfo id="id0.38" depart="24.00" departLane="E0_2" departPos="5.10" departSpeed="13.89" departDelay="16.40" arrival="87.00" arrivalLane="E3_1" arrivalPos="245.77" arrivalSpeed="12.88" duration="63.00" routeLength="835.16" waitingTime="0.00" waitingCount="0" stopTime="0.00" timeLoss="8.05" rerouteNo="1" devices="tripinfo_id0.38 routing_id0.38" vType="DEFAULT_VEHTYPE" speedFactor="1.10" vaporized=""/>
    <tripinfo id="id0.27" depart="22.00" departLane="E0_0" departPos="5.10" departSpeed="13.89" departDelay="16.60" arrival="89.00" arrivalLane="E3_0" arrivalPos="245.77" arrivalSpeed="13.70" duration="67.00" routeLength="835.16" waitingTime="0.00" waitingCount="0" stopTime="0.00" timeLoss="6.48" rerouteNo="1" devices="tripinfo_id0.27 routing_id0.27" vType="DEFAULT_VEHTYPE" speedFactor="1.00" vaporized=""/>
    <tripinfo id="id0.44" depart="28.00" departLane="E0_2" departPos="5.10" departSpeed="13.89" departDelay="19.20" arrival="90.00" arrivalLane="E3_1" arrivalPos="245.77" arrivalSpeed="12.83" duration="62.00" routeLength="835.16" waitingTime="0.00" waitingCount="0" stopTime="0.00" timeLoss="3.98" rerouteNo="1" devices="tripinfo_id0.44 routing_id0.44" vType="DEFAULT_VEHTYPE" speedFactor="1.04" vaporized=""/>
    <tripinfo id="id0.46" depart="26.00" departLane="E0_0" departPos="5.10" departSpeed="13.89" departDelay="16.80" arrival="91.00" arrivalLane="E3_0" arrivalPos="245.77" arrivalSpeed="13.27" duration="65.00" routeLength="835.16" waitingTime="0.00" waitingCount="0" stopTime="0.00" timeLoss="7.78" rerouteNo="1" devices="tripinfo_id0.46 routing_id0.46" vType="DEFAULT_VEHTYPE" speedFactor="1.06" vaporized=""/>
    <tripinfo id="id0.50" depart="30.00" departLane="E0_2" departPos="5.10" departSpeed="13.89" departDelay="20.00" arrival="92.00" arrivalLane="E3_1" arrivalPos="245.77" arrivalSpeed="13.52" duration="62.00" routeLength="835.16" waitingTime="0.00" waitingCount="0" stopTime="0.00" timeLoss="6.87" rerouteNo="1" devices="tripinfo_id0.50 routing_id0.50" vType="DEFAULT_VEHTYPE" speedFactor="1.10" vaporized=""/>
    <tripinfo id="id0.32" depart="28.00" departLane="E0_0" departPos="5.10" departSpeed="13.89" departDelay="21.60" arrival="93.00" arrivalLane="E3_0" arrivalPos="245.77" arrivalSpeed="12.87" duration="65.00" routeLength="835.16" waitingTime="0.00" waitingCount="0" stopTime="0.00" timeLoss="4.43" rerouteNo="1" devices="tripinfo_id0.32 routing_id0.32" vType="DEFAULT_VEHTYPE" speedFactor="1.01" vaporized=""/>
    <tripinfo id="id0.45" depart="32.00" departLane="E0_2" departPos="5.10" departSpeed="13.89" departDelay="23.00" arrival="93.00" arrivalLane="E3_1" arrivalPos="245.77" arrivalSpeed="13.57" duration="61.00" routeLength="835.16" waitingTime="0.00" waitingCount="0" stopTime="0.00" timeLoss="5.73" rerouteNo="1" devices="tripinfo_id0.45 routing_id0.45" vType="DEFAULT_VEHTYPE" speedFactor="1.09" vaporized=""/>
    <tripinfo id="id0.51" depart="32.00" departLane="E0_0" departPos="5.10" departSpeed="13.89" departDelay="21.80" arrival="94.00" arrivalLane="E3_0" arrivalPos="245.77" arrivalSpeed="13.46" duration="62.00" routeLength="835.16" waitingTime="0.00" waitingCount="0" stopTime="0.00" timeLoss="10.45" rerouteNo="1" devices="tripinfo_id0.51 routing_id0.51" vType="DEFAULT_VEHTYPE" speedFactor="1.17" vaporized=""/>
    <tripinfo id="id0.33" depart="21.00" departLane="E0_1" departPos="5.10" departSpeed="13.89" departDelay="14.40" arrival="95.00" arrivalLane="E3_1" arrivalPos="245.77" arrivalSpeed="12.93" duration="74.00" routeLength="835.16" waitingTime="0.00" waitingCount="0" stopTime="0.00" timeLoss="22.53" rerouteNo="1" devices="tripinfo_id0.33 routing_id0.33" vType="DEFAULT_VEHTYPE" speedFactor="1.17" vaporized=""/>
    <tripinfo id="id0.21" depart="14.00" departLane="E0_0" departPos="5.10" departSpeed="13.89" departDelay="9.80" arrival="96.00" arrivalLane="E3_0" arrivalPos="245.77" arrivalSpeed="12.72" duration="82.00" routeLength="835.16" waitingTime="0.00" waitingCount="0" stopTime="0.00" timeLoss="22.10" rerouteNo="1" devices="tripinfo_id0.21 routing_id0.21" vType="DEFAULT_VEHTYPE" speedFactor="1.01" vaporized=""/>
    <tripinfo id="id0.13" depart="12.00" departLane="E0_0" departPos="5.10" departSpeed="13.89" departDelay="9.40" arrival="98.00" arrivalLane="E3_0" arrivalPos="245.77" arrivalSpeed="13.28" duration="86.00" routeLength="835.16" waitingTime="0.00" waitingCount="0" stopTime="0.00" timeLoss="31.85" rerouteNo="1" devices="tripinfo_id0.13 routing_id0.13" vType="DEFAULT_VEHTYPE" speedFactor="1.12" vaporized=""/>
    <tripinfo id="id0.47" depart="34.00" departLane="E0_2" departPos="5.10" departSpeed="13.89" departDelay="24.60" arrival="98.00" arrivalLane="E3_1" arrivalPos="245.77" arrivalSpeed="12.83" duration="64.00" routeLength="835.16" waitingTime="0.00" waitingCount="0" stopTime="0.00" timeLoss="3.31" rerouteNo="1" devices="tripinfo_id0.47 routing_id0.47" vType="DEFAULT_VEHTYPE" speedFactor="1.00" vaporized=""/>
    <tripinfo id="id0.20" depart="13.00" departLane="E0_1" departPos="5.10" departSpeed="13.89" departDelay="9.00" arrival="100.00" arrivalLane="E3_0" arrivalPos="245.77" arrivalSpeed="13.09" duration="87.00" routeLength="835.16" waitingTime="0.00" waitingCount="0" stopTime="0.00" timeLoss="27.04" rerouteNo="1" devices="tripinfo_id0.20 routing_id0.20" vType="DEFAULT_VEHTYPE" speedFactor="1.02" vaporized=""/>
    <tripinfo id="id0.54" depart="36.00" departLane="E0_2" departPos="5.10" departSpeed="13.89" departDelay="25.20" arrival="100.00" arrivalLane="E3_2" arrivalPos="245.77" arrivalSpeed="13.20" duration="64.00" routeLength="835.16" waitingTime="0.00" waitingCount="0" stopTime="0.00" timeLoss="3.20" rerouteNo="1" devices="tripinfo_id0.54 routing_id0.54" vType="DEFAULT_VEHTYPE" speedFactor="1.00" vaporized=""/>
    <tripinfo id="id0.55" depart="38.00" departLane="E0_2" departPos="5.10" departSpeed="13.89" departDelay="27.00" arrival="101.00" arrivalLane="E3_1" arrivalPos="245.77" arrivalSpeed="13.65" duration="63.00" routeLength="835.16" waitingTime="0.00" waitingCount="0" stopTime="0.00" timeLoss="4.45" rerouteNo="1" devices="tripinfo_id0.55 routing_id0.55" vType="DEFAULT_VEHTYPE" speedFactor="1.04" vaporized=""/>
    <tripinfo id="id0.59" depart="34.00" departLane="E0_0" departPos="5.10" departSpeed="13.89" departDelay="22.20" arrival="101.00" arrivalLane="E3_0" arrivalPos="245.77" arrivalSpeed="13.87" duration="67.00" routeLength="835.16" waitingTime="0.00" waitingCount="0" stopTime="0.00" timeLoss="6.80" rerouteNo="1" devices="tripinfo_id0.59 routing_id0.59" vType="DEFAULT_VEHTYPE" speedFactor="1.00" vaporized=""/>
    <tripinfo id="id0.49" depart="38.00" departLane="E0_0" departPos="5.10" departSpeed="13.89" departDelay="28.20" arrival="103.00" arrivalLane="E3_0" arrivalPos="245.77" arrivalSpeed="12.96" duration="65.00" routeLength="835.16" waitingTime="0.00" waitingCount="0" stopTime="0.00" timeLoss="4.67" rerouteNo="1" devices="tripinfo_id0.49 routing_id0.49" vType="DEFAULT_VEHTYPE" speedFactor="1.00" vaporized=""/>
    <tripinfo id="id0.61" depart="40.00" departLane="E0_2" departPos="5.10" departSpeed="13.89" departDelay="27.80" arrival="103.00" arrivalLane="E3_1" arrivalPos="245.77" arrivalSpeed="12.96" duration="63.00" routeLength="835.16" waitingTime="0.00" waitingCount="0" stopTime="0.00" timeLoss="8.48" rerouteNo="1" devices="tripinfo_id0.61 routing_id0.61" vType="DEFAULT_VEHTYPE" speedFactor="1.12" vaporized=""/>
    <tripinfo id="id0.29" depart="15.00" departLane="E0_1" departPos="5.10" departSpeed="13.89" departDelay="9.20" arrival="105.00" arrivalLane="E3_0" arrivalPos="245.77" arrivalSpeed="12.71" duration="90.00" routeLength="835.16" waitingTime="0.00" waitingCount="0" stopTime="0.00" timeLoss="29.50" rerouteNo="1" devices="tripinfo_id0.29 routing_id0.29" vType="DEFAULT_VEHTYPE" speedFactor="1.00" vaporized=""/>
    <tripinfo id="id0.63" depart="42.00" departLane="E0_2" departPos="5.10" departSpeed="13.89" departDelay="29.40" arrival="106.00" arrivalLane="E3_1" arrivalPos="245.77" arrivalSpeed="13.18" duration="64.00" routeLength="835.16" waitingTime="0.00" waitingCount="0" stopTime="0.00" timeLoss="3.25" rerouteNo="1" devices="tripinfo_id0.63 routing_id0.63" vType="DEFAULT_VEHTYPE" speedFactor="1.00" vaporized=""/>
    <tripinfo id="id0.22" depart="17.00" departLane="E0_1" departPos="5.10" departSpeed="13.89" departDelay="12.60" arrival="107.00" arrivalLane="E3_0" arrivalPos="245.77" arrivalSpeed="13.27" duration="90.00" routeLength="835.16" waitingTime="0.00" waitingCount="0" stopTime="0.00" timeLoss="29.27" rerouteNo="1" devices="tripinfo_id0.22 routing_id0.22" vType="DEFAULT_VEHTYPE" speedFactor="1.00" vaporized=""/>
    <tripinfo id="id0.65" depart="44.00" departLane="E0_2" departPos="5.10" departSpeed="13.89" departDelay="31.00" arrival="108.00" arrivalLane="E3_1" arrivalPos="245.77" arrivalSpeed="13.55" duration="64.00" routeLength="835.16" waitingTime="0.00" waitingCount="0" stopTime="0.00" timeLoss="3.04" rerouteNo="1" devices="tripinfo_id0.65 routing_id0.65" vType="DEFAULT_VEHTYPE" speedFactor="1.00" vaporized=""/>
    <tripinfo id="id0.28" depart="19.00" departLane="E0_1" departPos="5.10" departSpeed="13.89" departDelay="13.40" arrival="109.00" arrivalLane="E3_0" arrivalPos="245.77" arrivalSpeed="13.89" duration="90.00" routeLength="835.16" waitingTime="0.00" waitingCount="0" stopTime="0.00" timeLoss="36.05" rerouteNo="1" devices="tripinfo_id0.28 routing_id0.28" vType="DEFAULT_VEHTYPE" speedFactor="1.13" vaporized=""/>
    <tripinfo id="id0.69" depart="46.00" departLane="E0_2" departPos="5.10" departSpeed="13.89" departDelay="32.20" arrival="109.00" arrivalLane="E3_1" arrivalPos="245.77" arrivalSpeed="12.97" duration="63.00" routeLength="835.16" waitingTime="0.00" waitingCount="0" stopTime="0.00" timeLoss="4.10" rerouteNo="1" devices="tripinfo_id0.69 routing_id0.69" vType="DEFAULT_VEHTYPE" speedFactor="1.02" vaporized=""/>
    <tripinfo id="id0.39" depart="23.00" departLane="E0_1" departPos="5.10" departSpeed="13.89" departDelay="15.20" arrival="110.00" arrivalLane="E3_0" arrivalPos="245.77" arrivalSpeed="13.08" duration="87.00" routeLength="835.16" waitingTime="0.00" waitingCount="0" stopTime="0.00" timeLoss="26.73" rerouteNo="1" devices="tripinfo_id0.39 routing_id0.39" vType="DEFAULT_VEHTYPE" speedFactor="1.00" vaporized=""/>
    <tripinfo id="id0.70" depart="48.00" departLane="E0_2" departPos="5.10" departSpeed="13.89" departDelay="34.00" arrival="111.00" arrivalLane="E3_1" arrivalPos="245.77" arrivalSpeed="12.63" duration="63.00" routeLength="835.16" waitingTime="0.00" waitingCount="0" stopTime="0.00" timeLoss="3.94" rerouteNo="1" devices="tripinfo_id0.70 routing_id0.70" vType="DEFAULT_VEHTYPE" speedFactor="1.02" vaporized=""/>
    <tripinfo id="id0.58" depart="36.00" departLane="E0_0" departPos="5.10" departSpeed="13.89" departDelay="24.40" arrival="112.00" arrivalLane="E3_0" arrivalPos="245.77" arrivalSpeed="12.97" duration="76.00" routeLength="835.16" waitingTime="0.00" waitingCount="0" stopTime="0.00" timeLoss="16.83" rerouteNo="1" devices="tripinfo_id0.58 routing_id0.58" vType="DEFAULT_VEHTYPE" speedFactor="1.02" vaporized=""/>
    <tripinfo id="id0.74" depart="50.00" departLane="E0_2" departPos="5.10" departSpeed="13.89" departDelay="35.20" arrival="113.00" arrivalLane="E3_1" arrivalPos="245.77" arrivalSpeed="13.44" duration="63.00" routeLength="835.16" waitingTime="0.00" waitingCount="0" stopTime="0.00" timeLoss="2.86" rerouteNo="1" devices="tripinfo_id0.74 routing_id0.74" vType="DEFAULT_VEHTYPE" speedFactor="1.00" vaporized=""/>
    <tripinfo id="id0.34" depart="24.00" departLane="E0_0" departPos="5.10" departSpeed="13.89" departDelay="17.20" arrival="114.00" arrivalLane="E3_0" arrivalPos="245.77" arrivalSpeed="13.57" duration="90.00" routeLength="835.16" waitingTime="0.00" waitingCount="0" stopTime="0.00" timeLoss="29.33" rerouteNo="1" devices="tripinfo_id0.34 routing_id0.34" vType="DEFAULT_VEHTYPE" speedFactor="1.00" vaporized=""/>
    <tripinfo id="id0.75" depart="52.00" departLane="E0_2" departPos="5.10" departSpeed="13.89" departDelay="37.00" arrival="115.00" arrivalLane="E3_1" arrivalPos="245.77" arrivalSpeed="12.70" duration="63.00" routeLength="835.16" waitingTime="0.00" waitingCount="0" stopTime="0.00" timeLoss="6.25" rerouteNo="1" devices="tripinfo_id0.75 routing_id0.75" vType="DEFAULT_VEHTYPE" speedFactor="1.06" vaporized=""/>
    <tripinfo id="id0.37" depart="25.00" departLane="E0_1" departPos="5.10" departSpeed="13.89" departDelay="17.60" arrival="116.00" arrivalLane="E3_0" arrivalPos="245.77" arrivalSpeed="12.71" duration="91.00" routeLength="835.16" waitingTime="0.00" waitingCount="0" stopTime="0.00" timeLoss="39.44" rerouteNo="1" devices="tripinfo_id0.37 routing_id0.37" vType="DEFAULT_VEHTYPE" speedFactor="1.18" vaporized=""/>
    <tripinfo id="id0.48" depart="40.00" departLane="E0_0" departPos="5.10" departSpeed="13.89" departDelay="30.40" arrival="117.00" arrivalLane="E3_0" arrivalPos="245.77" arrivalSpeed="13.49" duration="77.00" routeLength="835.16" waitingTime="0.00" waitingCount="0" stopTime="0.00" timeLoss="16.75" rerouteNo="1" devices="tripinfo_id0.48 routing_id0.48" vType="DEFAULT_VEHTYPE" speedFactor="1.00" vaporized=""/>
    <tripinfo id="id0.79" depart="54.00" departLane="E0_2" departPos="5.10" departSpeed="13.89" departDelay="38.20" arrival="117.00" arrivalLane="E3_1" arrivalPos="245.77" arrivalSpeed="13.15" duration="63.00" routeLength="835.16" waitingTime="0.00" waitingCount="0" stopTime="0.00" timeLoss="7.17" rerouteNo="1" devices="tripinfo_id0.79 routing_id0.79" vType="DEFAULT_VEHTYPE" speedFactor="1.09" vaporized=""/>
    <tripinfo id="id0.60" depart="42.00" departLane="E0_0" departPos="5.10" departSpeed="13.89" departDelay="30.00" arrival="119.00" arrivalLane="E3_0" arrivalPos="245.77" arrivalSpeed="13.71" duration="77.00" routeLength="835.16" waitingTime="0.00" waitingCount="0" stopTime="0.00" timeLoss="21.05" rerouteNo="1" devices="tripinfo_id0.60 routing_id0.60" vType="DEFAULT_VEHTYPE" speedFactor="1.08" vaporized=""/>
    <tripinfo id="id0.78" depart="56.00" departLane="E0_2" departPos="5.10" departSpeed="13.89" departDelay="40.40" arrival="119.00" arrivalLane="E3_1" arrivalPos="245.77" arrivalSpeed="13.38" duration="63.00" routeLength="835.16" waitingTime="0.00" waitingCount="0" stopTime="0.00" timeLoss="2.99" rerouteNo="1" devices="tripinfo_id0.78 routing_id0.78" vType="DEFAULT_VEHTYPE" speedFactor="1.01" vaporized=""/>
    <tripinfo id="id0.66" depart="44.00" departLane="E0_0" departPos="5.10" departSpeed="13.89" departDelay="30.80" arrival="121.00" arrivalLane="E3_0" arrivalPos="245.77" arrivalSpeed="13.35" duration="77.00" routeLength="835.16" waitingTime="0.00" waitingCount="0" stopTime="0.00" timeLoss="21.32" rerouteNo="1" devices="tripinfo_id0.66 routing_id0.66" vType="DEFAULT_VEHTYPE" speedFactor="1.09" vaporized=""/>
    <tripinfo id="id0.81" depart="58.00" departLane="E0_2" departPos="5.10" departSpeed="13.89" departDelay="41.80" arrival="122.00" arrivalLane="E3_1" arrivalPos="245.77" arrivalSpeed="13.49" duration="64.00" routeLength="835.16" waitingTime="0.00" waitingCount="0" stopTime="0.00" timeLoss="3.16" rerouteNo="1" devices="tripinfo_id0.81 routing_id0.81" vType="DEFAULT_VEHTYPE" speedFactor="1.00" vaporized=""/>
    <tripinfo id="id0.41" depart="27.00" departLane="E0_1" departPos="5.10" departSpeed="13.89" departDelay="18.80" arrival="123.00" arrivalLane="E3_0" arrivalPos="245.77" arrivalSpeed="13.05" duration="96.00" routeLength="835.16" waitingTime="3.00" waitingCount="1" stopTime="0.00" timeLoss="38.69" rerouteNo="1" devices="tripinfo_id0.41 routing_id0.41" vType="DEFAULT_VEHTYPE" speedFactor="1.06" vaporized=""/>
    <tripinfo id="id0.43" depart="29.00" departLane="E0_1" departPos="5.10" departSpeed="13.89" departDelay="20.40" arrival="124.00" arrivalLane="E3_0" arrivalPos="245.77" arrivalSpeed="13.04" duration="95.00" routeLength="835.16" waitingTime="1.00" waitingCount="1" stopTime="0.00" timeLoss="36.88" rerouteNo="1" devices="tripinfo_id0.43 routing_id0.43" vType="DEFAULT_VEHTYPE" speedFactor="1.04" vaporized=""/>
    <tripinfo id="id0.86" depart="60.00" departLane="E0_2" departPos="5.10" departSpeed="13.89" departDelay="42.80" arrival="124.00" arrivalLane="E3_1" arrivalPos="245.77" arrivalSpeed="13.43" duration="64.00" routeLength="835.16" waitingTime="0.00" waitingCount="0" stopTime="0.00" timeLoss="3.06" rerouteNo="1" devices="tripinfo_id0.86 routing_id0.86" vType="DEFAULT_VEHTYPE" speedFactor="1.00" vaporized=""/>
    <tripinfo id="id0.85" depart="62.00" departLane="E0_2" departPos="5.10" departSpeed="13.89" departDelay="45.00" arrival="125.00" arrivalLane="E3_1" arrivalPos="245.77" arrivalSpeed="13.55" duration="63.00" routeLength="835.16" waitingTime="0.00" waitingCount="0" stopTime="0.00" timeLoss="6.97" rerouteNo="1" devices="tripinfo_id0.85 routing_id0.85" vType="DEFAULT_VEHTYPE" speedFactor="1.08" vaporized=""/>
    <tripinfo id="id0.42" depart="30.00" departLane="E0_0" departPos="5.10" departSpeed="13.89" departDelay="21.60" arrival="126.00" arrivalLane="E3_0" arrivalPos="245.77" arrivalSpeed="13.09" duration="96.00" routeLength="835.16" waitingTime="1.00" waitingCount="1" stopTime="0.00" timeLoss="40.54" rerouteNo="1" devices="tripinfo_id0.42 routing_id0.42" vType="DEFAULT_VEHTYPE" speedFactor="1.09" vaporized=""/>
    <tripinfo id="id0.90" depart="64.00" departLane="E0_2" departPos="5.10" departSpeed="13.89" departDelay="46.00" arrival="127.00" arrivalLane="E3_1" arrivalPos="245.77" arrivalSpeed="13.39" duration="63.00" routeLength="835.16" waitingTime="0.00" waitingCount="0" stopTime="0.00" timeLoss="3.40" rerouteNo="1" devices="tripinfo_id0.90 routing_id0.90" vType="DEFAULT_VEHTYPE" speedFactor="1.02" vaporized=""/>
    <tripinfo id="id0.67" depart="46.00" departLane="E0_0" departPos="5.10" departSpeed="13.89" departDelay="32.60" arrival="128.00" arrivalLane="E3_0" arrivalPos="245.77" arrivalSpeed="13.23" duration="82.00" routeLength="835.16" waitingTime="7.00" waitingCount="1" stopTime="0.00" timeLoss="28.98" rerouteNo="1" devices="tripinfo_id0.67 routing_id0.67" vType="DEFAULT_VEHTYPE" speedFactor="1.15" vaporized=""/>