<?xml version="1.0" encoding="UTF-8"?>

<!-- generated on 2024-04-15 15:59:25 by Eclipse SUMO sumo Version 1.19.0
<configuration xmlns:xsi="http://www.w3.org/2001/XMLSchema-instance" xsi:noNamespaceSchemaLocation="http://sumo.dlr.de/xsd/sumoConfiguration.xsd">

    <input>
        <net-file value="./xml_data/test1/test1.net.xml"/>
        <route-files value="./xml_data/test1/test1.rou.xml"/>
    </input>

    <output>
        <tripinfo-output value="./xml_data/test1/test1.tripinfo.output.xml"/>
        <statistic-output value="./xml_data/test1/test1.statistic.output.xml"/>
    </output>

</configuration>
-->

<tripinfos xmlns:xsi="http://www.w3.org/2001/XMLSchema-instance" xsi:noNamespaceSchemaLocation="http://sumo.dlr.de/xsd/tripinfo_file.xsd">
    <tripinfo id="id0.0" depart="0.00" departLane="E0_2" departPos="4.10" departSpeed="13.89" departDelay="0.00" arrival="61.00" arrivalLane="E3_0" arrivalPos="245.77" arrivalSpeed="12.58" duration="61.00" routeLength="836.16" waitingTime="0.00" waitingCount="0" stopTime="0.00" timeLoss="3.37" rerouteNo="1" devices="tripinfo_id0.0 routing_id0.0" vType="id0" speedFactor="1.06" vaporized=""/>
    <tripinfo id="id0.3" depart="2.00" departLane="E0_2" departPos="4.10" departSpeed="13.89" departDelay="1.70" arrival="62.00" arrivalLane="E3_1" arrivalPos="245.77" arrivalSpeed="13.18" duration="60.00" routeLength="836.16" waitingTime="0.00" waitingCount="0" stopTime="0.00" timeLoss="3.58" rerouteNo="1" devices="tripinfo_id0.3 routing_id0.3" vType="id0" speedFactor="1.08" vaporized=""/>
    <tripinfo id="id0.6" depart="1.00" departLane="E0_1" departPos="4.10" departSpeed="13.89" departDelay="0.40" arrival="63.00" arrivalLane="E3_0" arrivalPos="245.77" arrivalSpeed="13.87" duration="62.00" routeLength="836.16" waitingTime="0.00" waitingCount="0" stopTime="0.00" timeLoss="3.49" rerouteNo="1" devices="tripinfo_id0.6 routing_id0.6" vType="id0" speedFactor="1.05" vaporized=""/>
    <tripinfo id="id0.1" depart="1.00" departLane="E0_0" departPos="4.10" departSpeed="13.89" departDelay="0.90" arrival="66.00" arrivalLane="E3_0" arrivalPos="245.77" arrivalSpeed="12.52" duration="65.00" routeLength="836.16" waitingTime="0.00" waitingCount="0" stopTime="0.00" timeLoss="3.96" rerouteNo="1" devices="tripinfo_id0.1 routing_id0.1" vType="id0" speedFactor="1.00" vaporized=""/>
    <tripinfo id="id0.4" depart="4.00" departLane="E0_2" departPos="4.10" departSpeed="13.89" departDelay="3.60" arrival="66.00" arrivalLane="E3_1" arrivalPos="245.77" arrivalSpeed="13.25" duration="62.00" routeLength="836.16" waitingTime="0.00" waitingCount="0" stopTime="0.00" timeLoss="3.08" rerouteNo="1" devices="tripinfo_id0.4 routing_id0.4" vType="id0" speedFactor="1.03" vaporized=""/>
    <tripinfo id="id0.2" depart="3.00" departLane="E0_0" departPos="4.10" departSpeed="13.89" departDelay="2.80" arrival="67.00" arrivalLane="E3_0" arrivalPos="245.77" arrivalSpeed="12.51" duration="64.00" routeLength="836.16" waitingTime="0.00" waitingCount="0" stopTime="0.00" timeLoss="4.32" rerouteNo="1" devices="tripinfo_id0.2 routing_id0.2" vType="id0" speedFactor="1.01" vaporized=""/>
    <tripinfo id="id0.13" depart="6.00" departLane="E0_2" departPos="4.10" departSpeed="13.89" departDelay="4.70" arrival="68.00" arrivalLane="E3_1" arrivalPos="245.77" arrivalSpeed="12.64" duration="62.00" routeLength="836.16" waitingTime="0.00" waitingCount="0" stopTime="0.00" timeLoss="7.69" rerouteNo="1" devices="tripinfo_id0.13 routing_id0.13" vType="id0" speedFactor="1.12" vaporized=""/>
    <tripinfo id="id0.7" depart="7.00" departLane="E0_0" departPos="4.10" departSpeed="13.89" departDelay="6.30" arrival="69.00" arrivalLane="E3_0" arrivalPos="245.77" arrivalSpeed="13.27" duration="62.00" routeLength="836.16" waitingTime="0.00" waitingCount="0" stopTime="0.00" timeLoss="11.50" rerouteNo="1" devices="tripinfo_id0.7 routing_id0.7" vType="id0" speedFactor="1.20" vaporized=""/>
    <tripinfo id="id0.9" depart="8.00" departLane="E0_2" departPos="4.10" departSpeed="13.89" departDelay="7.10" arrival="69.00" arrivalLane="E3_2" arrivalPos="245.77" arrivalSpeed="13.73" duration="61.00" routeLength="836.16" waitingTime="0.00" waitingCount="0" stopTime="0.00" timeLoss="4.91" rerouteNo="1" devices="tripinfo_id0.9 routing_id0.9" vType="id0" speedFactor="1.08" vaporized=""/>
    <tripinfo id="id0.5" depart="5.00" departLane="E0_0" departPos="4.10" departSpeed="13.89" departDelay="4.50" arrival="71.00" arrivalLane="E3_0" arrivalPos="245.77" arrivalSpeed="13.10" duration="66.00" routeLength="836.16" waitingTime="0.00" waitingCount="0" stopTime="0.00" timeLoss="9.70" rerouteNo="1" devices="tripinfo_id0.5 routing_id0.5" vType="id0" speedFactor="1.08" vaporized=""/>
    <tripinfo id="id0.10" depart="5.00" departLane="E0_1" departPos="4.10" departSpeed="13.89" departDelay="4.00" arrival="71.00" arrivalLane="E3_1" arrivalPos="245.77" arrivalSpeed="13.06" duration="66.00" routeLength="836.16" waitingTime="0.00" waitingCount="0" stopTime="0.00" timeLoss="10.08" rerouteNo="1" devices="tripinfo_id0.10 routing_id0.10" vType="id0" speedFactor="1.09" vaporized=""/>
    <tripinfo id="id0.11" depart="8.00" departLane="E0_0" departPos="4.10" departSpeed="13.89" departDelay="6.90" arrival="73.00" arrivalLane="E3_0" arrivalPos="245.77" arrivalSpeed="12.64" duration="65.00" routeLength="836.16" waitingTime="0.00" waitingCount="0" stopTime="0.00" timeLoss="5.49" rerouteNo="1" devices="tripinfo_id0.11 routing_id0.11" vType="id0" speedFactor="1.03" vaporized=""/>
    <tripinfo id="id0.8" depart="3.00" departLane="E0_1" departPos="4.10" departSpeed="13.89" departDelay="2.20" arrival="74.00" arrivalLane="E3_0" arrivalPos="245.77" arrivalSpeed="13.88" duration="71.00" routeLength="836.16" waitingTime="0.00" waitingCount="0" stopTime="0.00" timeLoss="13.11" rerouteNo="1" devices="tripinfo_id0.8 routing_id0.8" vType="id0" speedFactor="1.05" vaporized=""/>
    <tripinfo id="id0.17" depart="10.00" departLane="E0_2" departPos="4.10" departSpeed="13.89" departDelay="8.30" arrival="74.00" arrivalLane="E3_1" arrivalPos="245.77" arrivalSpeed="12.44" duration="64.00" routeLength="836.16" waitingTime="0.00" waitingCount="0" stopTime="0.00" timeLoss="3.44" rerouteNo="1" devices="tripinfo_id0.17 routing_id0.17" vType="id0" speedFactor="1.00" vaporized=""/>
    <tripinfo id="id0.16" depart="12.00" departLane="E0_2" departPos="4.10" departSpeed="13.89" departDelay="10.40" arrival="76.00" arrivalLane="E3_1" arrivalPos="245.77" arrivalSpeed="12.67" duration="64.00" routeLength="836.16" waitingTime="0.00" waitingCount="0" stopTime="0.00" timeLoss="3.47" rerouteNo="1" devices="tripinfo_id0.16 routing_id0.16" vType="id0" speedFactor="1.00" vaporized=""/>
    <tripinfo id="id0.23" depart="12.00" departLane="E0_0" departPos="4.10" departSpeed="13.89" departDelay="9.70" arrival="76.00" arrivalLane="E3_0" arrivalPos="245.77" arrivalSpeed="12.66" duration="64.00" routeLength="836.16" waitingTime="0.00" waitingCount="0" stopTime="0.00" timeLoss="3.72" rerouteNo="1" devices="tripinfo_id0.23 routing_id0.23" vType="id0" speedFactor="1.00" vaporized=""/>
    <tripinfo id="id0.19" depart="14.00" departLane="E0_0" departPos="4.10" departSpeed="13.89" departDelay="12.10" arrival="78.00" arrivalLane="E3_0" arrivalPos="245.77" arrivalSpeed="13.75" duration="64.00" routeLength="836.16" waitingTime="0.00" waitingCount="0" stopTime="0.00" timeLoss="11.64" rerouteNo="1" devices="tripinfo_id0.19 routing_id0.19" vType="id0" speedFactor="1.16" vaporized=""/>
    <tripinfo id="id0.21" depart="14.00" departLane="E0_2" departPos="4.10" departSpeed="13.89" departDelay="11.90" arrival="78.00" arrivalLane="E3_1" arrivalPos="245.77" arrivalSpeed="12.96" duration="64.00" routeLength="836.16" waitingTime="0.00" waitingCount="0" stopTime="0.00" timeLoss="3.80" rerouteNo="1" devices="tripinfo_id0.21 routing_id0.21" vType="id0" speedFactor="1.01" vaporized=""/>
    <tripinfo id="id0.15" depart="16.00" departLane="E0_2" departPos="4.10" departSpeed="13.89" departDelay="14.50" arrival="80.00" arrivalLane="E3_1" arrivalPos="245.77" arrivalSpeed="13.11" duration="64.00" routeLength="836.16" waitingTime="0.00" waitingCount="0" stopTime="0.00" timeLoss="3.52" rerouteNo="1" devices="tripinfo_id0.15 routing_id0.15" vType="id0" speedFactor="1.00" vaporized=""/>
    <tripinfo id="id0.18" depart="7.00" departLane="E0_1" departPos="4.10" departSpeed="13.89" departDelay="5.20" arrival="80.00" arrivalLane="E3_0" arrivalPos="245.77" arrivalSpeed="13.80" duration="73.00" routeLength="836.16" waitingTime="0.00" waitingCount="0" stopTime="0.00" timeLoss="17.32" rerouteNo="1" devices="tripinfo_id0.18 routing_id0.18" vType="id0" speedFactor="1.10" vaporized=""/>
    <tripinfo id="id0.20" depart="18.00" departLane="E0_2" departPos="4.10" departSpeed="13.89" departDelay="16.00" arrival="82.00" arrivalLane="E3_1" arrivalPos="245.77" arrivalSpeed="13.00" duration="64.00" routeLength="836.16" waitingTime="0.00" waitingCount="0" stopTime="0.00" timeLoss="4.28" rerouteNo="1" devices="tripinfo_id0.20 routing_id0.20" vType="id0" speedFactor="1.02" vaporized=""/>
    <tripinfo id="id0.25" depart="16.00" departLane="E0_0" departPos="4.10" departSpeed="13.89" departDelay="13.50" arrival="82.00" arrivalLane="E3_0" arrivalPos="245.77" arrivalSpeed="12.87" duration="66.00" routeLength="836.16" waitingTime="0.00" waitingCount="0" stopTime="0.00" timeLoss="5.49" rerouteNo="1" devices="tripinfo_id0.25 routing_id0.25" vType="id0" speedFactor="1.01" vaporized=""/>
    <tripinfo id="id0.37" depart="20.00" departLane="E0_2" departPos="4.10" departSpeed="13.89" departDelay="16.30" arrival="82.00" arrivalLane="E3_2" arrivalPos="245.77" arrivalSpeed="12.89" duration="62.00" routeLength="836.16" waitingTime="0.00" waitingCount="0" stopTime="0.00" timeLoss="10.30" rerouteNo="1" devices="tripinfo_id0.37 routing_id0.37" vType="id0" speedFactor="1.18" vaporized=""/>
    <tripinfo id="id0.24" depart="18.00" departLane="E0_0" departPos="4.10" departSpeed="13.89" departDelay="15.60" arrival="84.00" arrivalLane="E3_0" arrivalPos="245.77" arrivalSpeed="12.45" duration="66.00" routeLength="836.16" waitingTime="0.00" waitingCount="0" stopTime="0.00" timeLoss="5.06" rerouteNo="1" devices="tripinfo_id0.24 routing_id0.24" vType="id0" speedFactor="1.00" vaporized=""/>
    <tripinfo id="id0.30" depart="22.00" departLane="E0_2" departPos="4.10" departSpeed="13.89" departDelay="19.00" arrival="84.00" arrivalLane="E3_1" arrivalPos="245.77" arrivalSpeed="13.77" duration="62.00" routeLength="836.16" waitingTime="0.00" waitingCount="0" stopTime="0.00" timeLoss="10.12" rerouteNo="1" devices="tripinfo_id0.30 routing_id0.30" vType="id0" speedFactor="1.18" vaporized=""/>
    <tripinfo id="id0.31" depart="22.00" departLane="E0_0" departPos="4.10" departSpeed="13.89" departDelay="18.90" arrival="85.00" arrivalLane="E3_0" arrivalPos="245.77" arrivalSpeed="13.14" duration="63.00" routeLength="836.16" waitingTime="0.00" waitingCount="0" stopTime="0.00" timeLoss="10.75" rerouteNo="1" devices="tripinfo_id0.31 routing_id0.31" vType="id0" speedFactor="1.15" vaporized=""/>
    <tripinfo id="id0.36" depart="24.00" departLane="E0_2" departPos="4.10" departSpeed="13.89" departDelay="20.40" arrival="85.00" arrivalLane="E3_1" arrivalPos="245.77" arrivalSpeed="13.24" duration="61.00" routeLength="836.16" waitingTime="0.00" waitingCount="0" stopTime="0.00" timeLoss="10.19" rerouteNo="1" devices="tripinfo_id0.36 routing_id0.36" vType="id0" speedFactor="1.19" vaporized=""/>
    <tripinfo id="id0.12" depart="9.00" departLane="E0_1" departPos="4.10" departSpeed="13.89" departDelay="7.80" arrival="87.00" arrivalLane="E3_0" arrivalPos="245.77" arrivalSpeed="13.51" duration="78.00" routeLength="836.16" waitingTime="0.00" waitingCount="0" stopTime="0.00" timeLoss="20.15" rerouteNo="1" devices="tripinfo_id0.12 routing_id0.12" vType="id0" speedFactor="1.05" vaporized=""/>
    <tripinfo id="id0.41" depart="26.00" departLane="E0_2" departPos="4.10" departSpeed="13.89" departDelay="21.90" arrival="87.00" arrivalLane="E3_1" arrivalPos="245.77" arrivalSpeed="13.26" duration="61.00" routeLength="836.16" waitingTime="0.00" waitingCount="0" stopTime="0.00" timeLoss="6.64" rerouteNo="1" devices="tripinfo_id0.41 routing_id0.41" vType="id0" speedFactor="1.12" vaporized=""/>
    <tripinfo id="id0.14" depart="10.00" departLane="E0_0" departPos="4.10" departSpeed="13.89" departDelay="8.60" arrival="89.00" arrivalLane="E3_0" arrivalPos="245.77" arrivalSpeed="12.74" duration="79.00" routeLength="836.16" waitingTime="0.00" waitingCount="0" stopTime="0.00" timeLoss="18.19" rerouteNo="1" devices="tripinfo_id0.14 routing_id0.14" vType="id0" speedFactor="1.00" vaporized=""/>
    <tripinfo id="id0.38" depart="25.00" departLane="E0_1" departPos="4.10" departSpeed="13.89" departDelay="21.20" arrival="89.00" arrivalLane="E3_1" arrivalPos="245.77" arrivalSpeed="13.82" duration="64.00" routeLength="836.16" waitingTime="0.00" waitingCount="0" stopTime="0.00" timeLoss="8.77" rerouteNo="1" devices="tripinfo_id0.38 routing_id0.38" vType="id0" speedFactor="1.10" vaporized=""/>
    <tripinfo id="id0.27" depart="11.00" departLane="E0_1" departPos="4.10" departSpeed="13.89" departDelay="8.30" arrival="91.00" arrivalLane="E3_0" arrivalPos="245.77" arrivalSpeed="12.98" duration="80.00" routeLength="836.16" waitingTime="0.00" waitingCount="0" stopTime="0.00" timeLoss="18.90" rerouteNo="1" devices="tripinfo_id0.27 routing_id0.27" vType="id0" speedFactor="1.00" vaporized=""/>
    <tripinfo id="id0.26" depart="13.00" departLane="E0_1" departPos="4.10" departSpeed="13.89" departDelay="10.40" arrival="92.00" arrivalLane="E3_0" arrivalPos="245.77" arrivalSpeed="13.89" duration="79.00" routeLength="836.16" waitingTime="0.00" waitingCount="0" stopTime="0.00" timeLoss="18.55" rerouteNo="1" devices="tripinfo_id0.26 routing_id0.26" vType="id0" speedFactor="1.00" vaporized=""/>
    <tripinfo id="id0.40" depart="28.00" departLane="E0_2" departPos="4.10" departSpeed="13.89" departDelay="24.00" arrival="92.00" arrivalLane="E3_1" arrivalPos="245.77" arrivalSpeed="12.94" duration="64.00" routeLength="836.16" waitingTime="0.00" waitingCount="0" stopTime="0.00" timeLoss="4.73" rerouteNo="1" devices="tripinfo_id0.40 routing_id0.40" vType="id0" speedFactor="1.03" vaporized=""/>
    <tripinfo id="id0.42" depart="30.00" departLane="E0_2" departPos="4.10" departSpeed="13.89" departDelay="25.80" arrival="93.00" arrivalLane="E3_1" arrivalPos="245.77" arrivalSpeed="12.88" duration="63.00" routeLength="836.16" waitingTime="0.00" waitingCount="0" stopTime="0.00" timeLoss="7.68" rerouteNo="1" devices="tripinfo_id0.42 routing_id0.42" vType="id0" speedFactor="1.09" vaporized=""/>
    <tripinfo id="id0.45" depart="30.00" departLane="E0_0" departPos="4.10" departSpeed="13.89" departDelay="25.50" arrival="94.00" arrivalLane="E3_0" arrivalPos="245.77" arrivalSpeed="12.53" duration="64.00" routeLength="836.16" waitingTime="0.00" waitingCount="0" stopTime="0.00" timeLoss="8.39" rerouteNo="1" devices="tripinfo_id0.45 routing_id0.45" vType="id0" speedFactor="1.09" vaporized=""/>
    <tripinfo id="id0.52" depart="32.00" departLane="E0_2" departPos="4.10" departSpeed="13.89" departDelay="26.80" arrival="95.00" arrivalLane="E3_1" arrivalPos="245.77" arrivalSpeed="13.56" duration="63.00" routeLength="836.16" waitingTime="0.00" waitingCount="0" stopTime="0.00" timeLoss="3.78" rerouteNo="1" devices="tripinfo_id0.52 routing_id0.52" vType="id0" speedFactor="1.02" vaporized=""/>
    <tripinfo id="id0.48" depart="32.00" departLane="E0_0" departPos="4.10" departSpeed="13.89" departDelay="27.20" arrival="96.00" arrivalLane="E3_0" arrivalPos="245.77" arrivalSpeed="13.65" duration="64.00" routeLength="836.16" waitingTime="0.00" waitingCount="0" stopTime="0.00" timeLoss="8.10" rerouteNo="1" devices="tripinfo_id0.48 routing_id0.48" vType="id0" speedFactor="1.09" vaporized=""/>
    <tripinfo id="id0.51" depart="34.00" departLane="E0_2" departPos="4.10" departSpeed="13.89" departDelay="28.90" arrival="97.00" arrivalLane="E3_2" arrivalPos="245.77" arrivalSpeed="13.10" duration="63.00" routeLength="836.16" waitingTime="0.00" waitingCount="0" stopTime="0.00" timeLoss="10.81" rerouteNo="1" devices="tripinfo_id0.51 routing_id0.51" vType="id0" speedFactor="1.17" vaporized=""/>
    <tripinfo id="id0.49" depart="34.00" departLane="E0_0" departPos="4.10" departSpeed="13.89" departDelay="29.10" arrival="98.00" arrivalLane="E3_0" arrivalPos="245.77" arrivalSpeed="13.40" duration="64.00" routeLength="836.16" waitingTime="0.00" waitingCount="0" stopTime="0.00" timeLoss="3.10" rerouteNo="1" devices="tripinfo_id0.49 routing_id0.49" vType="id0" speedFactor="1.00" vaporized=""/>
    <tripinfo id="id0.59" depart="38.00" departLane="E0_2" departPos="4.10" departSpeed="13.89" departDelay="32.10" arrival="99.00" arrivalLane="E3_2" arrivalPos="245.77" arrivalSpeed="13.17" duration="61.00" routeLength="836.16" waitingTime="0.00" waitingCount="0" stopTime="0.00" timeLoss="12.17" rerouteNo="1" devices="tripinfo_id0.59 routing_id0.59" vType="id0" speedFactor="1.25" vaporized=""/>
    <tripinfo id="id0.28" depart="15.00" departLane="E0_1" departPos="4.10" departSpeed="13.89" departDelay="12.20" arrival="100.00" arrivalLane="E3_0" arrivalPos="245.77" arrivalSpeed="12.81" duration="85.00" routeLength="836.16" waitingTime="0.00" waitingCount="0" stopTime="0.00" timeLoss="31.07" rerouteNo="1" devices="tripinfo_id0.28 routing_id0.28" vType="id0" speedFactor="1.13" vaporized=""/>
    <tripinfo id="id0.55" depart="36.00" departLane="E0_2" departPos="4.10" departSpeed="13.89" departDelay="30.50" arrival="100.00" arrivalLane="E3_1" arrivalPos="245.77" arrivalSpeed="12.65" duration="64.00" routeLength="836.16" waitingTime="0.00" waitingCount="0" stopTime="0.00" timeLoss="3.53" rerouteNo="1" devices="tripinfo_id0.55 routing_id0.55" vType="id0" speedFactor="1.00" vaporized=""/>
    <tripinfo id="id0.50" depart="36.00" departLane="E0_0" departPos="4.10" departSpeed="13.89" departDelay="31.00" arrival="101.00" arrivalLane="E3_0" arrivalPos="245.77" arrivalSpeed="13.38" duration="65.00" routeLength="836.16" waitingTime="0.00" waitingCount="0" stopTime="0.00" timeLoss="4.52" rerouteNo="1" devices="tripinfo_id0.50 routing_id0.50" vType="id0" speedFactor="1.00" vaporized=""/>
    <tripinfo id="id0.29" depart="17.00" departLane="E0_1" departPos="4.10" departSpeed="13.89" departDelay="14.10" arrival="103.00" arrivalLane="E3_0" arrivalPos="245.77" arrivalSpeed="13.89" duration="86.00" routeLength="836.16" waitingTime="0.00" waitingCount="0" stopTime="0.00" timeLoss="26.34" rerouteNo="1" devices="tripinfo_id0.29 routing_id0.29" vType="id0" speedFactor="1.02" vaporized=""/>
    <tripinfo id="id0.68" depart="40.00" departLane="E0_2" departPos="4.10" departSpeed="13.89" departDelay="33.20" arrival="103.00" arrivalLane="E3_1" arrivalPos="245.77" arrivalSpeed="13.41" duration="63.00" routeLength="836.16" waitingTime="0.00" waitingCount="0" stopTime="0.00" timeLoss="4.28" rerouteNo="1" devices="tripinfo_id0.68 routing_id0.68" vType="id0" speedFactor="1.04" vaporized=""/>
    <tripinfo id="id0.60" depart="42.00" departLane="E0_2" departPos="4.10" departSpeed="13.89" departDelay="36.00" arrival="104.00" arrivalLane="E3_1" arrivalPos="245.77" arrivalSpeed="13.19" duration="62.00" routeLength="836.16" waitingTime="0.00" waitingCount="0" stopTime="0.00" timeLoss="6.16" rerouteNo="1" devices="tripinfo_id0.60 routing_id0.60" vType="id0" speedFactor="1.08" vaporized=""/>
    <tripinfo id="id0.58" depart="40.00" departLane="E0_0" departPos="4.10" departSpeed="13.89" departDelay="34.20" arrival="105.00" arrivalLane="E3_0" arrivalPos="245.77" arrivalSpeed="13.85" duration="65.00" routeLength="836.16" waitingTime="0.00" waitingCount="0" stopTime="0.00" timeLoss="5.31" rerouteNo="1" devices="tripinfo_id0.58 routing_id0.58" vType="id0" speedFactor="1.02" vaporized=""/>
    <tripinfo id="id0.32" depart="19.00" departLane="E0_1" departPos="4.10" departSpeed="13.89" departDelay="15.80" arrival="106.00" arrivalLane="E3_0" arrivalPos="245.77" arrivalSpeed="12.68" duration="87.00" routeLength="836.16" waitingTime="0.00" waitingCount="0" stopTime="0.00" timeLoss="27.04" rerouteNo="1" devices="tripinfo_id0.32 routing_id0.32" vType="id0" speedFactor="1.01" vaporized=""/>
    <tripinfo id="id0.69" depart="44.00" departLane="E0_2" departPos="4.10" departSpeed="13.89" departDelay="37.10" arrival="107.00" arrivalLane="E3_1" arrivalPos="245.77" arrivalSpeed="12.56" duration="63.00" routeLength="836.16" waitingTime="0.00" waitingCount="0" stopTime="0.00" timeLoss="3.26" rerouteNo="1" devices="tripinfo_id0.69 routing_id0.69" vType="id0" speedFactor="1.02" vaporized=""/>
    <tripinfo id="id0.65" depart="44.00" departLane="E0_0" departPos="4.10" departSpeed="13.89" departDelay="37.50" arrival="108.00" arrivalLane="E3_0" arrivalPos="245.77" arrivalSpeed="12.94" duration="64.00" routeLength="836.16" waitingTime="0.00" waitingCount="0" stopTime="0.00" timeLoss="3.52" rerouteNo="1" devices="tripinfo_id0.65 routing_id0.65" vType="id0" speedFactor="1.00" vaporized=""/>
    <tripinfo id="id0.66" depart="46.00" departLane="E0_2" departPos="4.10" departSpeed="13.89" departDelay="39.40" arrival="109.00" arrivalLane="E3_1" arrivalPos="245.77" arrivalSpeed="12.46" duration="63.00" routeLength="836.16" waitingTime="0.00" waitingCount="0" stopTime="0.00" timeLoss="3.09" rerouteNo="1" devices="tripinfo_id0.66 routing_id0.66" vType="id0" speedFactor="1.02" vaporized=""/>
    <tripinfo id="id0.22" depart="20.00" departLane="E0_0" departPos="4.10" departSpeed="13.89" departDelay="17.80" arrival="110.00" arrivalLane="E3_0" arrivalPos="245.77" arrivalSpeed="12.76" duration="90.00" routeLength="836.16" waitingTime="0.00" waitingCount="0" stopTime="0.00" timeLoss="29.30" rerouteNo="1" devices="tripinfo_id0.22 routing_id0.22" vType="id0" speedFactor="1.00" vaporized=""/>
    <tripinfo id="id0.76" depart="48.00" departLane="E0_2" departPos="4.10" departSpeed="13.89" departDelay="40.40" arrival="110.00" arrivalLane="E3_1" arrivalPos="245.77" arrivalSpeed="13.69" duration="62.00" routeLength="836.16" waitingTime="0.00" waitingCount="0" stopTime="0.00" timeLoss="3.67" rerouteNo="1" devices="tripinfo_id0.76 routing_id0.76" vType="id0" speedFactor="1.03" vaporized=""/>
    <tripinfo id="id0.71" depart="50.00" departLane="E0_2" departPos="4.10" departSpeed="13.89" departDelay="42.90" arrival="112.00" arrivalLane="E3_1" arrivalPos="245.77" arrivalSpeed="12.81" duration="62.00" routeLength="836.16" waitingTime="0.00" waitingCount="0" stopTime="0.00" timeLoss="5.69" rerouteNo="1" devices="tripinfo_id0.71 routing_id0.71" vType="id0" speedFactor="1.07" vaporized=""/>
    <tripinfo id="id0.74" depart="46.00" departLane="E0_0" departPos="4.10" departSpeed="13.89" departDelay="38.60" arrival="112.00" arrivalLane="E3_0" arrivalPos="245.77" arrivalSpeed="13.73" duration="66.00" routeLength="836.16" waitingTime="0.00" waitingCount="0" stopTime="0.00" timeLoss="5.04" rerouteNo="1" devices="tripinfo_id0.74 routing_id0.74" vType="id0" speedFactor="1.00" vaporized=""/>
    <tripinfo id="id0.72" depart="48.00" departLane="E0_0" departPos="4.10" departSpeed="13.89" departDelay="40.80" arrival="113.00" arrivalLane="E3_0" arrivalPos="245.77" arrivalSpeed="13.71" duration="65.00" routeLength="836.16" waitingTime="0.00" waitingCount="0" stopTime="0.00" timeLoss="9.59" rerouteNo="1" devices="tripinfo_id0.72 routing_id0.72" vType="id0" speedFactor="1.09" vaporized=""/>
    <tripinfo id="id0.79" depart="52.00" departLane="E0_2" departPos="4.10" departSpeed="13.89" departDelay="44.10" arrival="113.00" arrivalLane="E3_2" arrivalPos="245.77" arrivalSpeed="12.54" duration="61.00" routeLength="836.16" waitingTime="0.00" waitingCount="0" stopTime="0.00" timeLoss="5.53" rerouteNo="1" devices="tripinfo_id0.79 routing_id0.79" vType="id0" speedFactor="1.09" vaporized=""/>
    <tripinfo id="id0.75" depart="50.00" departLane="E0_0" departPos="4.10" departSpeed="13.89" departDelay="42.50" arrival="115.00" arrivalLane="E3_0" arrivalPos="245.77" arrivalSpeed="12.71" duration="65.00" routeLength="836.16" waitingTime="0.00" waitingCount="0" stopTime="0.00" timeLoss="7.16" rerouteNo="1" devices="tripinfo_id0.75 routing_id0.75" vType="id0" speedFactor="1.05" vaporized=""/>
    <tripinfo id="id0.63" depart="41.00" departLane="E0_1" departPos="4.10" departSpeed="13.89" departDelay="34.70" arrival="116.00" arrivalLane="E3_1" arrivalPos="245.77" arrivalSpeed="12.52" duration="75.00" routeLength="836.16" waitingTime="0.00" waitingCount="0" stopTime="0.00" timeLoss="15.89" rerouteNo="1" devices="tripinfo_id0.63 routing_id0.63" vType="id0" speedFactor="1.03" vaporized=""/>
    <tripinfo id="id0.34" depart="24.00" departLane="E0_0" departPos="4.10" departSpeed="13.89" departDelay="20.60" arrival="117.00" arrivalLane="E3_0" arrivalPos="245.77" arrivalSpeed="12.80" duration="93.00" routeLength="836.16" waitingTime="1.00" waitingCount="1" stopTime="0.00" timeLoss="32.62" rerouteNo="1" devices="tripinfo_id0.34 routing_id0.34" vType="id0" speedFactor="1.00" vaporized=""/>
    <tripinfo id="id0.73" depart="52.00" departLane="E0_0" departPos="4.10" departSpeed="13.89" departDelay="44.70" arrival="119.00" arrivalLane="E3_0" arrivalPos="245.77" arrivalSpeed="12.82" duration="67.00" routeLength="836.16" waitingTime="1.00" waitingCount="1" stopTime="0.00" timeLoss="9.48" rerouteNo="1" devices="tripinfo_id0.73 routing_id0.73" vType="id0" speedFactor="1.06" vaporized=""/>
    <tripinfo id="id0.85" depart="54.00" departLane="E0_2" departPos="4.10" departSpeed="13.89" departDelay="45.50" arrival="119.00" arrivalLane="E3_1" arrivalPos="245.77" arrivalSpeed="12.48" duration="65.00" routeLength="836.16" waitingTime="0.00" waitingCount="0" stopTime="0.00" timeLoss="4.07" rerouteNo="1" devices="tripinfo_id0.85 routing_id0.85" vType="id0" speedFactor="1.00" vaporized=""/>
    <tripinfo id="id0.78" depart="56.00" departLane="E0_2" departPos="4.10" departSpeed="13.89" departDelay="48.20" arrival="120.00" arrivalLane="E3_1" arrivalPos="245.77" arrivalSpeed="13.55" duration="64.00" routeLength="836.16" waitingTime="0.00" waitingCount="0" stopTime="0.00" timeLoss="4.09" rerouteNo="1" devices="tripinfo_id0.78 routing_id0.78" vType="id0" speedFactor="1.01" vaporized=""/>
    <tripinfo id="id0.39" depart="26.00" departLane="E0_0" departPos="4.10" departSpeed="13.89" departDelay="22.10" arrival="121.00" arrivalLane="E3_0" arrivalPos="245.77" arrivalSpeed="12.78" duration="95.00" routeLength="836.16" waitingTime="2.00" waitingCount="2" stopTime="0.00" timeLoss="39.29" rerouteNo="1" devices="tripinfo_id0.39 routing_id0.39" vType="id0" speedFactor="1.10" vaporized=""/>
    <tripinfo id="id0.33" depart="21.00" departLane="E0_1" departPos="4.10" departSpeed="13.89" departDelay="17.70" arrival="122.00" arrivalLane="E3_0" arrivalPos="245.77" arrivalSpeed="13.84" duration="101.00" routeLength="836.16" waitingTime="1.00" waitingCount="1" stopTime="0.00" timeLoss="49.39" rerouteNo="1" devices="tripinfo_id0.33 routing_id0.33" vType="id0" speedFactor="1.17" vaporized=""/>
    <tripinfo id="id0.86" depart="58.00" departLane="E0_2" departPos="4.10" departSpeed="13.89" departDelay="49.40" arrival="122.00" arrivalLane="E3_1" arrivalPos="245.77" arrivalSpeed="13.34" duration="64.00" routeLength="836.16" waitingTime="0.00" waitingCount="0" stopTime="0.00" timeLoss="3.72" rerouteNo="1" devices="tripinfo_id0.86 routing_id0.86" vType="id0" speedFactor="1.00" vaporized=""/>
    <tripinfo id="id0.82" depart="60.00" departLane="E0_2" departPos="4.10" departSpeed="13.89" departDelay="51.80" arrival="124.00" arrivalLane="E3_1" arrivalPos="245.77" arrivalSpeed="13.12" duration="64.00" routeLength="836.16" waitingTime="0.00" waitingCount="0" stopTime="0.00" timeLoss="4.46" rerouteNo="1" devices="tripinfo_id0.82 routing_id0.82" vType="id0" speedFactor="1.02" vaporized=""/>
    <tripinfo id="id0.90" depart="62.00" departLane="E0_2" departPos="4.10" departSpeed="13.89" departDelay="53.00" arrival="126.00" arrivalLane="E3_1" arrivalPos="245.77" arrivalSpeed="13.36" duration="64.00" routeLength="836.16" waitingTime="0.00" waitingCount="0" stopTime="0.00" timeLoss="4.14" rerouteNo="1" devices="tripinfo_id0.90 routing_id0.90" vType="id0" speedFactor="1.02" vaporized=""/>
    <tripinfo id="id0.93" depart="54.00" departLane="E0_0" departPos="4.10" departSpeed="13.89" departDelay="44.70" arrival="126.00" arrivalLane="E3_0" arrivalPos="245.77" arrivalSpeed="13.82" duration="72.00" routeLength="836.16" waitingTime="3.00" waitingCount="2" stopTime="0.00" timeLoss="12.00" rerouteNo="1" devices="tripinfo_id0.93 routing_id0.93" vType="id0" speedFactor="1.01" vaporized=""/>
    <tripinfo id="id0.95" depart="64.00" departLane="E0_2" departPos="4.10" departSpeed="13.89" departDelay="54.50" arrival="127.00" arrivalLane="E3_2" arrivalPos="245.77" arrivalSpeed="12.55" duration="63.00" routeLength="836.16" waitingTime="0.00" waitingCount="0" stopTime="0.00" timeLoss="5.25" rerouteNo="1" devices="tripinfo_id0.95 routing_id0.95" vType="id0" speedFactor="1.06" vaporized=""/>
    <tripinfo id="id0.77" depart="56.00" departLane="E0_0" departPos="4.10" departSpeed="13.89" departDelay="48.30" arrival="128.00" arrivalLane="E3_0" arrivalPos="245.77" arrivalSpeed="12.89" duration="72.00" routeLength="836.16" waitingTime="2.00" waitingCount="2" stopTime="0.00" timeLoss="11.57" rerouteNo="1" devices="tripinfo_id0.77 routing_id0.77" vType="id0" speedFactor="1.00" vaporized=""/>
    <tripinfo id="id0.35" depart="23.00" departLane="E0_1" departPos="4.10" departSpeed="13.89" departDelay="19.50" arrival="130.00" arrivalLane="E3_0" arrivalPos="245.77" arrivalSpeed="13.42" duration="107.00" routeLength="836.16" waitingTime="4.00" waitingCount="3" stopTime="0.00" timeLoss="47.37" rerouteNo="1" devices="tripinfo_id0.35 routing_id0.35" vType="id0" speedFactor="1.02" vaporized=""/>