<?xml version="1.0" encoding="UTF-8"?>

<!-- generated on 2024-04-15 20:52:23 by Eclipse SUMO sumo Version 1.19.0
<configuration xmlns:xsi="http://www.w3.org/2001/XMLSchema-instance" xsi:noNamespaceSchemaLocation="http://sumo.dlr.de/xsd/sumoConfiguration.xsd">

    <input>
        <net-file value="./xml_data/test1/test1.net.xml"/>
        <route-files value="./xml_data/test1/test1.rou.xml"/>
    </input>

    <output>
        <tripinfo-output value="./xml_data/test1/test1.tripinfo.output.xml"/>
    </output>

</configuration>
-->

<tripinfos xmlns:xsi="http://www.w3.org/2001/XMLSchema-instance" xsi:noNamespaceSchemaLocation="http://sumo.dlr.de/xsd/tripinfo_file.xsd">
    <tripinfo id="id0.0" depart="0.00" departLane="E0_2" departPos="4.10" departSpeed="30.00" departDelay="0.00" arrival="19.00" arrivalLane="E3_0" arrivalPos="245.77" arrivalSpeed="30.00" duration="19.00" routeLength="836.60" waitingTime="0.00" waitingCount="0" stopTime="0.00" timeLoss="2.27" rerouteNo="1" devices="tripinfo_id0.0 routing_id0.0" vType="id0" speedFactor="1.06" vaporized=""/>
    <tripinfo id="id0.3" depart="1.00" departLane="E0_0" departPos="4.10" departSpeed="30.00" departDelay="0.40" arrival="21.00" arrivalLane="E3_0" arrivalPos="245.77" arrivalSpeed="30.00" duration="20.00" routeLength="836.60" waitingTime="0.00" waitingCount="0" stopTime="0.00" timeLoss="2.88" rerouteNo="1" devices="tripinfo_id0.3 routing_id0.3" vType="id0" speedFactor="1.08" vaporized=""/>
    <tripinfo id="id0.2" depart="1.00" departLane="E0_2" departPos="4.10" departSpeed="30.00" departDelay="0.60" arrival="22.00" arrivalLane="E3_0" arrivalPos="245.77" arrivalSpeed="30.00" duration="21.00" routeLength="836.60" waitingTime="0.00" waitingCount="0" stopTime="0.00" timeLoss="4.03" rerouteNo="1" devices="tripinfo_id0.2 routing_id0.2" vType="id0" speedFactor="1.01" vaporized=""/>
    <tripinfo id="id0.1" depart="1.00" departLane="E0_1" departPos="4.10" departSpeed="30.00" departDelay="0.80" arrival="24.00" arrivalLane="E3_0" arrivalPos="245.77" arrivalSpeed="30.00" duration="23.00" routeLength="836.60" waitingTime="0.00" waitingCount="0" stopTime="0.00" timeLoss="4.56" rerouteNo="1" devices="tripinfo_id0.1 routing_id0.1" vType="id0" speedFactor="0.94" vaporized=""/>
    <tripinfo id="id0.4" depart="2.00" departLane="E0_1" departPos="4.10" departSpeed="30.00" departDelay="1.20" arrival="25.00" arrivalLane="E3_0" arrivalPos="245.77" arrivalSpeed="30.00" duration="23.00" routeLength="836.60" waitingTime="0.00" waitingCount="0" stopTime="0.00" timeLoss="5.96" rerouteNo="1" devices="tripinfo_id0.4 routing_id0.4" vType="id0" speedFactor="1.03" vaporized=""/>
    <tripinfo id="id0.9" depart="2.00" departLane="E0_0" departPos="4.10" departSpeed="30.00" departDelay="0.20" arrival="27.00" arrivalLane="E3_0" arrivalPos="245.77" arrivalSpeed="30.00" duration="25.00" routeLength="836.60" waitingTime="0.00" waitingCount="0" stopTime="0.00" timeLoss="4.99" rerouteNo="1" devices="tripinfo_id0.9 routing_id0.9" vType="id0" speedFactor="0.86" vaporized=""/>
    <tripinfo id="id0.8" depart="3.00" departLane="E0_1" departPos="4.10" departSpeed="30.00" departDelay="1.40" arrival="28.00" arrivalLane="E3_0" arrivalPos="245.77" arrivalSpeed="30.00" duration="25.00" routeLength="836.60" waitingTime="0.00" waitingCount="0" stopTime="0.00" timeLoss="6.99" rerouteNo="1" devices="tripinfo_id0.8 routing_id0.8" vType="id0" speedFactor="0.94" vaporized=""/>
    <tripinfo id="id0.5" depart="4.00" departLane="E0_0" departPos="4.10" departSpeed="30.00" departDelay="3.00" arrival="30.00" arrivalLane="E3_0" arrivalPos="245.77" arrivalSpeed="30.00" duration="26.00" routeLength="836.60" waitingTime="0.00" waitingCount="0" stopTime="0.00" timeLoss="5.25" rerouteNo="1" devices="tripinfo_id0.5 routing_id0.5" vType="id0" speedFactor="0.83" vaporized=""/>
    <tripinfo id="id0.6" depart="4.00" departLane="E0_2" departPos="4.10" departSpeed="30.00" departDelay="2.80" arrival="31.00" arrivalLane="E3_0" arrivalPos="245.77" arrivalSpeed="30.00" duration="27.00" routeLength="836.60" waitingTime="0.00" waitingCount="0" stopTime="0.00" timeLoss="10.01" rerouteNo="1" devices="tripinfo_id0.6 routing_id0.6" vType="id0" speedFactor="1.05" vaporized=""/>
    <tripinfo id="id0.15" depart="5.00" departLane="E0_0" departPos="4.10" departSpeed="30.00" departDelay="2.00" arrival="32.00" arrivalLane="E3_0" arrivalPos="245.77" arrivalSpeed="30.00" duration="27.00" routeLength="836.60" waitingTime="0.00" waitingCount="0" stopTime="0.00" timeLoss="8.95" rerouteNo="1" devices="tripinfo_id0.15 routing_id0.15" vType="id0" speedFactor="0.93" vaporized=""/>
    <tripinfo id="id0.13" depart="7.00" departLane="E0_0" departPos="4.10" departSpeed="30.00" departDelay="4.40" arrival="34.00" arrivalLane="E3_0" arrivalPos="245.77" arrivalSpeed="30.00" duration="27.00" routeLength="836.60" waitingTime="0.00" waitingCount="0" stopTime="0.00" timeLoss="9.97" rerouteNo="1" devices="tripinfo_id0.13 routing_id0.13" vType="id0" speedFactor="1.12" vaporized=""/>
    <tripinfo id="id0.10" depart="5.00" departLane="E0_2" departPos="4.10" departSpeed="30.00" departDelay="3.00" arrival="35.00" arrivalLane="E3_0" arrivalPos="245.77" arrivalSpeed="30.00" duration="30.00" routeLength="836.60" waitingTime="0.00" waitingCount="0" stopTime="0.00" timeLoss="13.22" rerouteNo="1" devices="tripinfo_id0.10 routing_id0.10" vType="id0" speedFactor="1.09" vaporized=""/>
    <tripinfo id="id0.16" depart="9.00" departLane="E0_0" departPos="4.10" departSpeed="30.00" departDelay="5.80" arrival="37.00" arrivalLane="E3_0" arrivalPos="245.77" arrivalSpeed="30.00" duration="28.00" routeLength="836.60" waitingTime="0.00" waitingCount="0" stopTime="0.00" timeLoss="8.52" rerouteNo="1" devices="tripinfo_id0.16 routing_id0.16" vType="id0" speedFactor="0.88" vaporized=""/>
    <tripinfo id="id0.7" depart="6.00" departLane="E0_1" departPos="4.10" departSpeed="30.00" departDelay="4.60" arrival="38.00" arrivalLane="E3_0" arrivalPos="245.77" arrivalSpeed="30.00" duration="32.00" routeLength="836.60" waitingTime="0.00" waitingCount="0" stopTime="0.00" timeLoss="13.03" rerouteNo="1" devices="tripinfo_id0.7 routing_id0.7" vType="id0" speedFactor="0.89" vaporized=""/>
    <tripinfo id="id0.12" depart="10.00" departLane="E0_0" departPos="4.10" departSpeed="30.00" departDelay="7.60" arrival="40.00" arrivalLane="E3_0" arrivalPos="245.77" arrivalSpeed="30.00" duration="30.00" routeLength="836.60" waitingTime="0.00" waitingCount="0" stopTime="0.00" timeLoss="12.99" rerouteNo="1" devices="tripinfo_id0.12 routing_id0.12" vType="id0" speedFactor="1.05" vaporized=""/>
    <tripinfo id="id0.23" depart="12.00" departLane="E0_0" departPos="4.10" departSpeed="30.00" departDelay="7.40" arrival="42.00" arrivalLane="E3_0" arrivalPos="245.77" arrivalSpeed="30.00" duration="30.00" routeLength="836.60" waitingTime="0.00" waitingCount="0" stopTime="0.00" timeLoss="10.53" rerouteNo="1" devices="tripinfo_id0.23 routing_id0.23" vType="id0" speedFactor="0.89" vaporized=""/>
    <tripinfo id="id0.11" depart="8.00" departLane="E0_2" departPos="4.10" departSpeed="30.00" departDelay="5.80" arrival="43.00" arrivalLane="E3_0" arrivalPos="245.77" arrivalSpeed="30.00" duration="35.00" routeLength="836.60" waitingTime="0.00" waitingCount="0" stopTime="0.00" timeLoss="18.07" rerouteNo="1" devices="tripinfo_id0.11 routing_id0.11" vType="id0" speedFactor="1.03" vaporized=""/>
    <tripinfo id="id0.20" depart="14.00" departLane="E0_0" departPos="4.10" departSpeed="30.00" departDelay="10.00" arrival="45.00" arrivalLane="E3_0" arrivalPos="245.77" arrivalSpeed="30.00" duration="31.00" routeLength="836.60" waitingTime="0.00" waitingCount="0" stopTime="0.00" timeLoss="13.88" rerouteNo="1" devices="tripinfo_id0.20 routing_id0.20" vType="id0" speedFactor="1.02" vaporized=""/>
    <tripinfo id="id0.28" depart="15.00" departLane="E0_0" departPos="4.10" departSpeed="30.00" departDelay="9.40" arrival="46.00" arrivalLane="E3_0" arrivalPos="245.77" arrivalSpeed="30.00" duration="31.00" routeLength="836.60" waitingTime="0.00" waitingCount="0" stopTime="0.00" timeLoss="14.18" rerouteNo="1" devices="tripinfo_id0.28 routing_id0.28" vType="id0" speedFactor="1.13" vaporized=""/>
    <tripinfo id="id0.17" depart="8.00" departLane="E0_1" departPos="4.10" departSpeed="30.00" departDelay="4.60" arrival="48.00" arrivalLane="E3_0" arrivalPos="245.77" arrivalSpeed="30.00" duration="40.00" routeLength="836.60" waitingTime="0.00" waitingCount="0" stopTime="0.00" timeLoss="21.99" rerouteNo="1" devices="tripinfo_id0.17 routing_id0.17" vType="id0" speedFactor="0.94" vaporized=""/>
    <tripinfo id="id0.19" depart="17.00" departLane="E0_0" departPos="4.10" departSpeed="30.00" departDelay="13.20" arrival="50.00" arrivalLane="E3_0" arrivalPos="245.77" arrivalSpeed="30.00" duration="33.00" routeLength="836.60" waitingTime="0.00" waitingCount="0" stopTime="0.00" timeLoss="15.68" rerouteNo="1" devices="tripinfo_id0.19 routing_id0.19" vType="id0" speedFactor="1.16" vaporized=""/>
    <tripinfo id="id0.22" depart="18.00" departLane="E0_0" departPos="4.10" departSpeed="30.00" departDelay="13.60" arrival="51.00" arrivalLane="E3_0" arrivalPos="245.77" arrivalSpeed="30.00" duration="33.00" routeLength="836.60" waitingTime="0.00" waitingCount="0" stopTime="0.00" timeLoss="15.53" rerouteNo="1" devices="tripinfo_id0.22 routing_id0.22" vType="id0" speedFactor="0.97" vaporized=""/>
    <tripinfo id="id0.14" depart="9.00" departLane="E0_2" departPos="4.10" departSpeed="30.00" departDelay="6.20" arrival="53.00" arrivalLane="E3_0" arrivalPos="245.77" arrivalSpeed="30.00" duration="44.00" routeLength="836.60" waitingTime="0.00" waitingCount="0" stopTime="0.00" timeLoss="26.69" rerouteNo="1" devices="tripinfo_id0.14 routing_id0.14" vType="id0" speedFactor="0.99" vaporized=""/>
    <tripinfo id="id0.24" depart="20.00" departLane="E0_0" departPos="4.10" departSpeed="30.00" departDelay="15.20" arrival="54.00" arrivalLane="E3_0" arrivalPos="245.77" arrivalSpeed="30.00" duration="34.00" routeLength="836.60" waitingTime="0.00" waitingCount="0" stopTime="0.00" timeLoss="13.65" rerouteNo="1" devices="tripinfo_id0.24 routing_id0.24" vType="id0" speedFactor="0.83" vaporized=""/>
    <tripinfo id="id0.33" depart="22.00" departLane="E0_0" departPos="4.10" departSpeed="30.00" departDelay="15.40" arrival="56.00" arrivalLane="E3_0" arrivalPos="245.77" arrivalSpeed="30.00" duration="34.00" routeLength="836.60" waitingTime="0.00" waitingCount="0" stopTime="0.00" timeLoss="16.91" rerouteNo="1" devices="tripinfo_id0.33 routing_id0.33" vType="id0" speedFactor="1.17" vaporized=""/>
    <tripinfo id="id0.26" depart="13.00" departLane="E0_1" departPos="4.10" departSpeed="30.00" departDelay="7.80" arrival="58.00" arrivalLane="E3_0" arrivalPos="245.77" arrivalSpeed="30.00" duration="45.00" routeLength="836.60" waitingTime="0.00" waitingCount="0" stopTime="0.00" timeLoss="26.76" rerouteNo="1" devices="tripinfo_id0.26 routing_id0.26" vType="id0" speedFactor="0.92" vaporized=""/>
    <tripinfo id="id0.18" depart="15.00" departLane="E0_2" departPos="4.10" departSpeed="30.00" departDelay="11.40" arrival="60.00" arrivalLane="E3_0" arrivalPos="245.77" arrivalSpeed="30.00" duration="45.00" routeLength="836.60" waitingTime="0.00" waitingCount="0" stopTime="0.00" timeLoss="26.74" rerouteNo="1" devices="tripinfo_id0.18 routing_id0.18" vType="id0" speedFactor="0.94" vaporized=""/>
    <tripinfo id="id0.21" depart="16.00" departLane="E0_1" departPos="4.10" departSpeed="30.00" departDelay="11.80" arrival="61.00" arrivalLane="E3_0" arrivalPos="245.77" arrivalSpeed="30.00" duration="45.00" routeLength="836.60" waitingTime="0.00" waitingCount="0" stopTime="0.00" timeLoss="28.15" rerouteNo="1" devices="tripinfo_id0.21 routing_id0.21" vType="id0" speedFactor="1.01" vaporized=""/>
    <tripinfo id="id0.27" depart="18.00" departLane="E0_1" departPos="4.10" departSpeed="30.00" departDelay="12.60" arrival="63.00" arrivalLane="E3_0" arrivalPos="245.77" arrivalSpeed="30.00" duration="45.00" routeLength="836.60" waitingTime="0.00" waitingCount="0" stopTime="0.00" timeLoss="26.86" rerouteNo="1" devices="tripinfo_id0.27 routing_id0.27" vType="id0" speedFactor="0.95" vaporized=""/>
    <tripinfo id="id0.35" depart="29.00" departLane="E0_0" departPos="4.10" departSpeed="30.00" departDelay="22.00" arrival="65.00" arrivalLane="E3_0" arrivalPos="245.77" arrivalSpeed="30.00" duration="36.00" routeLength="836.60" waitingTime="0.00" waitingCount="0" stopTime="0.00" timeLoss="18.76" rerouteNo="1" devices="tripinfo_id0.35 routing_id0.35" vType="id0" speedFactor="1.02" vaporized=""/>
    <tripinfo id="id0.44" depart="31.00" departLane="E0_0" departPos="4.10" departSpeed="30.00" departDelay="22.20" arrival="66.00" arrivalLane="E3_0" arrivalPos="245.77" arrivalSpeed="30.00" duration="35.00" routeLength="836.60" waitingTime="0.00" waitingCount="0" stopTime="0.00" timeLoss="18.05" rerouteNo="1" devices="tripinfo_id0.44 routing_id0.44" vType="id0" speedFactor="1.04" vaporized=""/>
    <tripinfo id="id0.32" depart="19.00" departLane="E0_1" departPos="4.10" departSpeed="30.00" departDelay="12.60" arrival="68.00" arrivalLane="E3_0" arrivalPos="245.77" arrivalSpeed="30.00" duration="49.00" routeLength="836.60" waitingTime="0.00" waitingCount="0" stopTime="0.00" timeLoss="32.03" rerouteNo="1" devices="tripinfo_id0.32 routing_id0.32" vType="id0" speedFactor="1.01" vaporized=""/>
    <tripinfo id="id0.39" depart="34.00" departLane="E0_0" departPos="4.10" departSpeed="30.00" departDelay="26.20" arrival="70.00" arrivalLane="E3_0" arrivalPos="245.77" arrivalSpeed="30.00" duration="36.00" routeLength="836.60" waitingTime="0.00" waitingCount="0" stopTime="0.00" timeLoss="17.01" rerouteNo="1" devices="tripinfo_id0.39 routing_id0.39" vType="id0" speedFactor="0.90" vaporized=""/>
    <tripinfo id="id0.37" depart="32.00" departLane="E0_0" departPos="4.10" departSpeed="30.00" departDelay="24.60" arrival="71.00" arrivalLane="E3_0" arrivalPos="245.77" arrivalSpeed="30.00" duration="39.00" routeLength="836.60" waitingTime="0.00" waitingCount="0" stopTime="0.00" timeLoss="22.26" rerouteNo="1" devices="tripinfo_id0.37 routing_id0.37" vType="id0" speedFactor="1.18" vaporized=""/>
    <tripinfo id="id0.41" depart="33.00" departLane="E0_1" departPos="4.10" departSpeed="30.00" departDelay="24.80" arrival="73.00" arrivalLane="E3_0" arrivalPos="245.77" arrivalSpeed="30.00" duration="40.00" routeLength="836.60" waitingTime="0.00" waitingCount="0" stopTime="0.00" timeLoss="22.46" rerouteNo="1" devices="tripinfo_id0.41 routing_id0.41" vType="id0" speedFactor="0.96" vaporized=""/>
    <tripinfo id="id0.29" depart="23.00" departLane="E0_0" departPos="4.10" departSpeed="30.00" departDelay="17.20" arrival="75.00" arrivalLane="E3_0" arrivalPos="245.77" arrivalSpeed="30.00" duration="52.00" routeLength="836.60" waitingTime="0.00" waitingCount="0" stopTime="0.00" timeLoss="33.79" rerouteNo="1" devices="tripinfo_id0.29 routing_id0.29" vType="id0" speedFactor="0.93" vaporized=""/>
    <tripinfo id="id0.51" depart="36.00" departLane="E0_0" departPos="4.10" departSpeed="30.00" departDelay="25.80" arrival="77.00" arrivalLane="E3_0" arrivalPos="245.77" arrivalSpeed="30.00" duration="41.00" routeLength="836.60" waitingTime="0.00" waitingCount="0" stopTime="0.00" timeLoss="23.90" rerouteNo="1" devices="tripinfo_id0.51 routing_id0.51" vType="id0" speedFactor="1.17" vaporized=""/>
    <tripinfo id="id0.53" depart="41.00" departLane="E0_0" departPos="4.10" departSpeed="30.00" departDelay="30.40" arrival="78.00" arrivalLane="E3_0" arrivalPos="245.77" arrivalSpeed="30.00" duration="37.00" routeLength="836.60" waitingTime="0.00" waitingCount="0" stopTime="0.00" timeLoss="20.23" rerouteNo="1" devices="tripinfo_id0.53 routing_id0.53" vType="id0" speedFactor="1.10" vaporized=""/>
    <tripinfo id="id0.45" depart="25.00" departLane="E0_0" departPos="4.10" departSpeed="30.00" departDelay="16.00" arrival="80.00" arrivalLane="E3_0" arrivalPos="245.77" arrivalSpeed="30.00" duration="55.00" routeLength="836.60" waitingTime="0.00" waitingCount="0" stopTime="0.00" timeLoss="38.05" rerouteNo="1" devices="tripinfo_id0.45 routing_id0.45" vType="id0" speedFactor="1.09" vaporized=""/>
    <tripinfo id="id0.52" depart="43.00" departLane="E0_0" departPos="4.10" departSpeed="30.00" departDelay="32.60" arrival="82.00" arrivalLane="E3_0" arrivalPos="245.77" arrivalSpeed="30.00" duration="39.00" routeLength="836.60" waitingTime="0.00" waitingCount="0" stopTime="0.00" timeLoss="21.81" rerouteNo="1" devices="tripinfo_id0.52 routing_id0.52" vType="id0" speedFactor="1.02" vaporized=""/>
    <tripinfo id="id0.54" depart="45.00" departLane="E0_0" departPos="4.10" departSpeed="30.00" departDelay="34.20" arrival="83.00" arrivalLane="E3_0" arrivalPos="245.77" arrivalSpeed="30.00" duration="38.00" routeLength="836.60" waitingTime="0.00" waitingCount="0" stopTime="0.00" timeLoss="21.17" rerouteNo="1" devices="tripinfo_id0.54 routing_id0.54" vType="id0" speedFactor="1.00" vaporized=""/>
    <tripinfo id="id0.40" depart="27.00" departLane="E0_0" departPos="4.10" departSpeed="30.00" departDelay="19.00" arrival="85.00" arrivalLane="E3_0" arrivalPos="245.77" arrivalSpeed="30.00" duration="58.00" routeLength="836.60" waitingTime="0.00" waitingCount="0" stopTime="0.00" timeLoss="41.14" rerouteNo="1" devices="tripinfo_id0.40 routing_id0.40" vType="id0" speedFactor="1.03" vaporized=""/>
    <tripinfo id="id0.49" depart="40.00" departLane="E0_1" departPos="4.10" departSpeed="30.00" departDelay="30.20" arrival="87.00" arrivalLane="E3_0" arrivalPos="245.77" arrivalSpeed="30.00" duration="47.00" routeLength="836.60" waitingTime="0.00" waitingCount="0" stopTime="0.00" timeLoss="26.93" rerouteNo="1" devices="tripinfo_id0.49 routing_id0.49" vType="id0" speedFactor="0.85" vaporized=""/>
    <tripinfo id="id0.59" depart="47.00" departLane="E0_0" departPos="4.10" departSpeed="30.00" departDelay="35.20" arrival="89.00" arrivalLane="E3_0" arrivalPos="245.77" arrivalSpeed="30.00" duration="42.00" routeLength="836.60" waitingTime="0.00" waitingCount="0" stopTime="0.00" timeLoss="24.29" rerouteNo="1" devices="tripinfo_id0.59 routing_id0.59" vType="id0" speedFactor="0.97" vaporized=""/>
    <tripinfo id="id0.36" depart="27.00" departLane="E0_1" departPos="4.10" departSpeed="30.00" departDelay="19.80" arrival="91.00" arrivalLane="E3_0" arrivalPos="245.77" arrivalSpeed="30.00" duration="64.00" routeLength="836.60" waitingTime="0.00" waitingCount="0" stopTime="0.00" timeLoss="46.60" rerouteNo="1" devices="tripinfo_id0.36 routing_id0.36" vType="id0" speedFactor="0.97" vaporized=""/>
    <tripinfo id="id0.60" depart="51.00" departLane="E0_0" departPos="4.10" departSpeed="30.00" departDelay="39.00" arrival="93.00" arrivalLane="E3_0" arrivalPos="245.77" arrivalSpeed="30.00" duration="42.00" routeLength="836.60" waitingTime="0.00" waitingCount="0" stopTime="0.00" timeLoss="25.25" rerouteNo="1" devices="tripinfo_id0.60 routing_id0.60" vType="id0" speedFactor="1.08" vaporized=""/>
    <tripinfo id="id0.55" depart="52.00" departLane="E0_0" departPos="4.10" departSpeed="30.00" departDelay="41.00" arrival="95.00" arrivalLane="E3_0" arrivalPos="245.77" arrivalSpeed="30.00" duration="43.00" routeLength="836.60" waitingTime="0.00" waitingCount="0" stopTime="0.00" timeLoss="25.87" rerouteNo="1" devices="tripinfo_id0.55 routing_id0.55" vType="id0" speedFactor="1.00" vaporized=""/>
    <tripinfo id="id0.34" depart="23.00" departLane="E0_1" departPos="4.10" departSpeed="30.00" departDelay="16.20" arrival="97.00" arrivalLane="E3_0" arrivalPos="245.77" arrivalSpeed="30.00" duration="74.00" routeLength="836.60" waitingTime="5.00" waitingCount="1" stopTime="0.00" timeLoss="56.95" rerouteNo="1" devices="tripinfo_id0.34 routing_id0.34" vType="id0" speedFactor="0.99" vaporized=""/>
    <tripinfo id="id0.63" depart="54.00" departLane="E0_0" departPos="4.10" departSpeed="30.00" departDelay="41.40" arrival="99.00" arrivalLane="E3_0" arrivalPos="245.77" arrivalSpeed="30.00" duration="45.00" routeLength="836.60" waitingTime="0.00" waitingCount="0" stopTime="0.00" timeLoss="27.76" rerouteNo="1" devices="tripinfo_id0.63 routing_id0.63" vType="id0" speedFactor="0.99" vaporized=""/>
    <tripinfo id="id0.66" depart="56.00" departLane="E0_0" departPos="4.10" departSpeed="30.00" departDelay="42.80" arrival="100.00" arrivalLane="E3_0" arrivalPos="245.77" arrivalSpeed="30.00" duration="44.00" routeLength="836.60" waitingTime="0.00" waitingCount="0" stopTime="0.00" timeLoss="25.49" rerouteNo="1" devices="tripinfo_id0.66 routing_id0.66" vType="id0" speedFactor="0.91" vaporized=""/>
    <tripinfo id="id0.25" depart="18.00" departLane="E0_2" departPos="4.10" departSpeed="30.00" departDelay="13.00" arrival="102.00" arrivalLane="E3_0" arrivalPos="245.77" arrivalSpeed="30.00" duration="84.00" routeLength="836.60" waitingTime="9.00" waitingCount="3" stopTime="0.00" timeLoss="64.73" rerouteNo="1" devices="tripinfo_id0.25 routing_id0.25" vType="id0" speedFactor="0.87" vaporized=""/>
    <tripinfo id="id0.48" depart="38.00" departLane="E0_0" departPos="4.10" departSpeed="30.00" departDelay="28.40" arrival="104.00" arrivalLane="E3_0" arrivalPos="245.77" arrivalSpeed="30.00" duration="66.00" routeLength="836.60" waitingTime="3.00" waitingCount="1" stopTime="0.00" timeLoss="46.41" rerouteNo="1" devices="tripinfo_id0.48 routing_id0.48" vType="id0" speedFactor="0.88" vaporized=""/>
    <tripinfo id="id0.50" depart="40.00" departLane="E0_0" departPos="4.10" departSpeed="30.00" departDelay="30.00" arrival="105.00" arrivalLane="E3_0" arrivalPos="245.77" arrivalSpeed="30.00" duration="65.00" routeLength="836.60" waitingTime="3.00" waitingCount="1" stopTime="0.00" timeLoss="45.19" rerouteNo="1" devices="tripinfo_id0.50 routing_id0.50" vType="id0" speedFactor="0.85" vaporized=""/>
    <tripinfo id="id0.30" depart="23.00" departLane="E0_2" departPos="4.10" departSpeed="30.00" departDelay="17.00" arrival="107.00" arrivalLane="E3_0" arrivalPos="245.77" arrivalSpeed="30.00" duration="84.00" routeLength="836.60" waitingTime="11.00" waitingCount="3" stopTime="0.00" timeLoss="66.70" rerouteNo="1" devices="tripinfo_id0.30 routing_id0.30" vType="id0" speedFactor="1.18" vaporized=""/>
    <tripinfo id="id0.70" depart="61.00" departLane="E0_0" departPos="4.10" departSpeed="30.00" departDelay="47.00" arrival="108.00" arrivalLane="E3_0" arrivalPos="245.77" arrivalSpeed="30.00" duration="47.00" routeLength="836.60" waitingTime="0.00" waitingCount="0" stopTime="0.00" timeLoss="30.08" rerouteNo="1" devices="tripinfo_id0.70 routing_id0.70" vType="id0" speedFactor="1.02" vaporized=""/>
    <tripinfo id="id0.64" depart="49.00" departLane="E0_0" departPos="4.10" departSpeed="30.00" departDelay="36.20" arrival="110.00" arrivalLane="E3_0" arrivalPos="245.77" arrivalSpeed="30.00" duration="61.00" routeLength="836.60" waitingTime="3.00" waitingCount="1" stopTime="0.00" timeLoss="43.12" rerouteNo="1" devices="tripinfo_id0.64 routing_id0.64" vType="id0" speedFactor="0.94" vaporized=""/>
    <tripinfo id="id0.57" depart="63.00" departLane="E0_0" departPos="4.10" departSpeed="30.00" departDelay="51.60" arrival="112.00" arrivalLane="E3_0" arrivalPos="245.77" arrivalSpeed="30.00" duration="49.00" routeLength="836.60" waitingTime="0.00" waitingCount="0" stopTime="0.00" timeLoss="32.27" rerouteNo="1" devices="tripinfo_id0.57 routing_id0.57" vType="id0" speedFactor="1.14" vaporized=""/>
    <tripinfo id="id0.31" depart="25.00" departLane="E0_2" departPos="4.10" departSpeed="30.00" departDelay="18.80" arrival="114.00" arrivalLane="E3_0" arrivalPos="245.77" arrivalSpeed="30.00" duration="89.00" routeLength="836.60" waitingTime="11.00" waitingCount="3" stopTime="0.00" timeLoss="71.94" rerouteNo="1" devices="tripinfo_id0.31 routing_id0.31" vType="id0" speedFactor="1.15" vaporized=""/>
    <tripinfo id="id0.38" depart="29.00" departLane="E0_2" departPos="4.10" departSpeed="30.00" departDelay="21.40" arrival="115.00" arrivalLane="E3_0" arrivalPos="245.77" arrivalSpeed="30.00" duration="86.00" routeLength="836.60" waitingTime="12.00" waitingCount="3" stopTime="0.00" timeLoss="69.18" rerouteNo="1" devices="tripinfo_id0.38 routing_id0.38" vType="id0" speedFactor="1.10" vaporized=""/>
    <tripinfo id="id0.67" depart="58.00" departLane="E0_0" departPos="4.10" departSpeed="30.00" departDelay="44.60" arrival="117.00" arrivalLane="E3_0" arrivalPos="245.77" arrivalSpeed="30.00" duration="59.00" routeLength="836.60" waitingTime="2.00" waitingCount="1" stopTime="0.00" timeLoss="40.21" rerouteNo="1" devices="tripinfo_id0.67 routing_id0.67" vType="id0" speedFactor="0.91" vaporized=""/>
    <tripinfo id="id0.68" depart="60.00" departLane="E0_0" departPos="4.10" departSpeed="30.00" departDelay="46.40" arrival="118.00" arrivalLane="E3_0" arrivalPos="245.77" arrivalSpeed="30.00" duration="58.00" routeLength="836.60" waitingTime="2.00" waitingCount="1" stopTime="0.00" timeLoss="41.06" rerouteNo="1" devices="tripinfo_id0.68 routing_id0.68" vType="id0" speedFactor="1.04" vaporized=""/>
    <tripinfo id="id0.58" depart="46.00" departLane="E0_1" departPos="4.10" departSpeed="30.00" departDelay="34.40" arrival="120.00" arrivalLane="E3_0" arrivalPos="245.77" arrivalSpeed="30.00" duration="74.00" routeLength="836.60" waitingTime="12.00" waitingCount="4" stopTime="0.00" timeLoss="56.70" rerouteNo="1" devices="tripinfo_id0.58 routing_id0.58" vType="id0" speedFactor="1.02" vaporized=""/>
    <tripinfo id="id0.79" depart="69.00" departLane="E0_0" departPos="4.10" departSpeed="30.00" departDelay="53.20" arrival="121.00" arrivalLane="E3_0" arrivalPos="245.77" arrivalSpeed="30.00" duration="52.00" routeLength="836.60" waitingTime="3.00" waitingCount="1" stopTime="0.00" timeLoss="35.07" rerouteNo="1" devices="tripinfo_id0.79 routing_id0.79" vType="id0" speedFactor="1.09" vaporized=""/>
    <tripinfo id="id0.87" depart="84.00" departLane="E0_0" departPos="4.10" departSpeed="30.00" departDelay="66.60" arrival="123.00" arrivalLane="E3_0" arrivalPos="245.77" arrivalSpeed="30.00" duration="39.00" routeLength="836.60" waitingTime="0.00" waitingCount="0" stopTime="0.00" timeLoss="21.86" rerouteNo="1" devices="tripinfo_id0.87 routing_id0.87" vType="id0" speedFactor="1.04" vaporized=""/>
    <tripinfo id="id0.47" depart="44.00" departLane="E0_1" departPos="4.10" departSpeed="30.00" departDelay="34.60" arrival="125.00" arrivalLane="E3_0" arrivalPos="245.77" arrivalSpeed="30.00" duration="81.00" routeLength="836.60" waitingTime="6.00" waitingCount="4" stopTime="0.00" timeLoss="61.96" rerouteNo="1" devices="tripinfo_id0.47 routing_id0.47" vType="id0" speedFactor="0.90" vaporized=""/>
    <tripinfo id="id0.83" depart="72.00" departLane="E0_0" departPos="4.10" departSpeed="30.00" departDelay="55.40" arrival="127.00" arrivalLane="E3_0" arrivalPos="245.77" arrivalSpeed="30.00" duration="55.00" routeLength="836.60" waitingTime="3.00" waitingCount="1" stopTime="0.00" timeLoss="37.38" rerouteNo="1" devices="tripinfo_id0.83 routing_id0.83" vType="id0" speedFactor="0.97" vaporized=""/>
    <tripinfo id="id0.42" depart="31.00" departLane="E0_1" departPos="4.10" departSpeed="30.00" departDelay="22.60" arrival="128.00" arrivalLane="E3_0" arrivalPos="245.77" arrivalSpeed="30.00" duration="97.00" routeLength="836.60" waitingTime="17.00" waitingCount="5" stopTime="0.00" timeLoss="80.27" rerouteNo="1" devices="tripinfo_id0.42 routing_id0.42" vType="id0" speedFactor="1.09" vaporized=""/>
    <tripinfo id="id0.82" depart="74.00" departLane="E0_0" departPos="4.10" departSpeed="30.00" departDelay="57.60" arrival="130.00" arrivalLane="E3_0" arrivalPos="245.77" arrivalSpeed="30.00" duration="56.00" routeLength="836.60" waitingTime="3.00" waitingCount="1" stopTime="0.00" timeLoss="39.27" rerouteNo="1" devices="tripinfo_id0.82 routing_id0.82" vType="id0" speedFactor="1.02" vaporized=""/>
    <tripinfo id="id0.86" depart="89.00" departLane="E0_0" departPos="4.10" departSpeed="30.00" departDelay="71.80" arrival="132.00" arrivalLane="E3_0" arrivalPos="245.77" arrivalSpeed="30.00" duration="43.00" routeLength="836.60" waitingTime="0.00" waitingCount="0" stopTime="0.00" timeLoss="25.91" rerouteNo="1" devices="tripinfo_id0.86 routing_id0.86" vType="id0" speedFactor="1.00" vaporized=""/>
    <tripinfo id="id0.84" depart="77.00" departLane="E0_0" departPos="4.10" departSpeed="30.00" departDelay="60.20" arrival="133.00" arrivalLane="E3_0" arrivalPos="245.77" arrivalSpeed="30.00" duration="56.00" routeLength="836.60" waitingTime="3.00" waitingCount="1" stopTime="0.00" timeLoss="39.15" rerouteNo="1" devices="tripinfo_id0.84 routing_id0.84" vType="id0" speedFactor="1.15" vaporized=""/>
    <tripinfo id="id0.74" depart="65.00" departLane="E0_0" departPos="4.10" departSpeed="30.00" departDelay="50.20" arrival="135.00" arrivalLane="E3_0" arrivalPos="245.77" arrivalSpeed="30.00" duration="70.00" routeLength="836.60" waitingTime="5.00" waitingCount="2" stopTime="0.00" timeLoss="52.27" rerouteNo="1" devices="tripinfo_id0.74 routing_id0.74" vType="id0" speedFactor="0.96" vaporized=""/>
    <tripinfo id="id0.99" depart="91.00" departLane="E0_0" departPos="4.10" departSpeed="30.00" departDelay="71.20" arrival="137.00" arrivalLane="E3_0" arrivalPos="245.77" arrivalSpeed="30.00" duration="46.00" routeLength="836.60" waitingTime="0.00" waitingCount="0" stopTime="0.00" timeLoss="28.95" rerouteNo="1" devices="tripinfo_id0.99 routing_id0.99" vType="id0" speedFactor="1.10" vaporized=""/>
    <tripinfo id="id0.95" depart="94.00" departLane="E0_0" departPos="4.10" departSpeed="30.00" departDelay="75.00" arrival="138.00" arrivalLane="E3_0" arrivalPos="245.77" arrivalSpeed="30.00" duration="44.00" routeLength="836.60" waitingTime="0.00" waitingCount="0" stopTime="0.00" timeLoss="27.19" rerouteNo="1" devices="tripinfo_id0.95 routing_id0.95" vType="id0" speedFactor="1.06" vaporized=""/>