<?xml version="1.0" encoding="UTF-8"?>

<!-- generated on 2024-04-20 00:25:21 by Eclipse SUMO GUI Version 1.19.0
<configuration xmlns:xsi="http://www.w3.org/2001/XMLSchema-instance" xsi:noNamespaceSchemaLocation="http://sumo.dlr.de/xsd/sumoConfiguration.xsd">

    <input>
        <net-file value="C:\Users\Artem\Desktop\programs\SUMO\Hakashinka\xml_data\test1\test1.net.xml"/>
        <route-files value="C:\Users\Artem\Desktop\programs\SUMO\Hakashinka\xml_data\test1\test1.rou.xml"/>
        <additional-files value="C:\Users\Artem\Desktop\programs\SUMO\Hakashinka\xml_data\test1\test1.add.xml"/>
    </input>

    <output>
        <tripinfo-output value="C:\Users\Artem\Desktop\programs\SUMO\Hakashinka\xml_data\test1\test1.tripinfo.output.xml"/>
        <statistic-output value="C:\Users\Artem\Desktop\programs\SUMO\Hakashinka\xml_data\test1\test1.statistic.output.xml"/>
    </output>

</configuration>
-->

<tripinfos xmlns:xsi="http://www.w3.org/2001/XMLSchema-instance" xsi:noNamespaceSchemaLocation="http://sumo.dlr.de/xsd/tripinfo_file.xsd">
    <tripinfo id="id0.0" depart="0.00" departLane="E0_2" departPos="4.10" departSpeed="50.00" departDelay="0.00" arrival="17.00" arrivalLane="E3_0" arrivalPos="245.77" arrivalSpeed="49.91" duration="17.00" routeLength="836.52" waitingTime="0.00" waitingCount="0" stopTime="0.00" timeLoss="0.19" rerouteNo="1" devices="tripinfo_id0.0 routing_id0.0" vType="id1" speedFactor="1.06" vaporized=""/>
    <tripinfo id="id0.2" depart="1.00" departLane="E0_0" departPos="4.10" departSpeed="50.00" departDelay="0.33" arrival="19.00" arrivalLane="E3_0" arrivalPos="245.77" arrivalSpeed="49.67" duration="18.00" routeLength="836.52" waitingTime="0.00" waitingCount="0" stopTime="0.00" timeLoss="0.45" rerouteNo="1" devices="tripinfo_id0.2 routing_id0.2" vType="id1" speedFactor="1.01" vaporized=""/>
    <tripinfo id="id0.4" depart="2.00" departLane="E0_2" departPos="4.10" departSpeed="50.00" departDelay="0.67" arrival="20.00" arrivalLane="E3_0" arrivalPos="245.77" arrivalSpeed="49.53" duration="18.00" routeLength="836.52" waitingTime="0.00" waitingCount="0" stopTime="0.00" timeLoss="0.70" rerouteNo="1" devices="tripinfo_id0.4 routing_id0.4" vType="id1" speedFactor="1.03" vaporized=""/>
    <tripinfo id="id0.1" depart="2.00" departLane="E0_1" departPos="4.10" departSpeed="50.00" departDelay="1.67" arrival="21.00" arrivalLane="E3_0" arrivalPos="245.77" arrivalSpeed="49.60" duration="19.00" routeLength="836.52" waitingTime="0.00" waitingCount="0" stopTime="0.00" timeLoss="1.83" rerouteNo="1" devices="tripinfo_id0.1 routing_id0.1" vType="id1" speedFactor="1.00" vaporized=""/>
    <tripinfo id="id0.3" depart="3.00" departLane="E0_0" departPos="4.10" departSpeed="50.00" departDelay="2.00" arrival="22.00" arrivalLane="E3_0" arrivalPos="245.77" arrivalSpeed="48.81" duration="19.00" routeLength="836.52" waitingTime="0.00" waitingCount="0" stopTime="0.00" timeLoss="2.05" rerouteNo="1" devices="tripinfo_id0.3 routing_id0.3" vType="id1" speedFactor="1.08" vaporized=""/>
    <tripinfo id="id0.9" depart="4.00" departLane="E0_2" departPos="4.10" departSpeed="50.00" departDelay="1.00" arrival="23.00" arrivalLane="E3_0" arrivalPos="245.77" arrivalSpeed="48.73" duration="19.00" routeLength="836.52" waitingTime="0.00" waitingCount="0" stopTime="0.00" timeLoss="2.23" rerouteNo="1" devices="tripinfo_id0.9 routing_id0.9" vType="id1" speedFactor="1.00" vaporized=""/>
    <tripinfo id="id0.6" depart="5.00" departLane="E0_0" departPos="4.10" departSpeed="50.00" departDelay="3.00" arrival="25.00" arrivalLane="E3_0" arrivalPos="245.77" arrivalSpeed="48.75" duration="20.00" routeLength="836.52" waitingTime="0.00" waitingCount="0" stopTime="0.00" timeLoss="2.53" rerouteNo="1" devices="tripinfo_id0.6 routing_id0.6" vType="id1" speedFactor="1.05" vaporized=""/>
    <tripinfo id="id0.5" depart="5.00" departLane="E0_1" departPos="4.10" departSpeed="50.00" departDelay="3.34" arrival="26.00" arrivalLane="E3_0" arrivalPos="245.77" arrivalSpeed="48.54" duration="21.00" routeLength="836.52" waitingTime="0.00" waitingCount="0" stopTime="0.00" timeLoss="3.72" rerouteNo="1" devices="tripinfo_id0.5 routing_id0.5" vType="id1" speedFactor="1.20" vaporized=""/>
    <tripinfo id="id0.7" depart="6.00" departLane="E0_2" departPos="4.10" departSpeed="50.00" departDelay="3.67" arrival="27.00" arrivalLane="E3_0" arrivalPos="245.77" arrivalSpeed="49.04" duration="21.00" routeLength="836.52" waitingTime="0.00" waitingCount="0" stopTime="0.00" timeLoss="3.94" rerouteNo="1" devices="tripinfo_id0.7 routing_id0.7" vType="id1" speedFactor="1.02" vaporized=""/>
    <tripinfo id="id0.8" depart="7.00" departLane="E0_0" departPos="4.10" departSpeed="50.00" departDelay="4.34" arrival="28.00" arrivalLane="E3_0" arrivalPos="245.77" arrivalSpeed="49.24" duration="21.00" routeLength="836.52" waitingTime="0.00" waitingCount="0" stopTime="0.00" timeLoss="4.17" rerouteNo="1" devices="tripinfo_id0.8 routing_id0.8" vType="id1" speedFactor="1.00" vaporized=""/>
    <tripinfo id="id0.14" depart="8.00" departLane="E0_2" departPos="4.10" departSpeed="50.00" departDelay="3.34" arrival="30.00" arrivalLane="E3_0" arrivalPos="245.77" arrivalSpeed="49.13" duration="22.00" routeLength="836.52" waitingTime="0.00" waitingCount="0" stopTime="0.00" timeLoss="4.50" rerouteNo="1" devices="tripinfo_id0.14 routing_id0.14" vType="id1" speedFactor="1.00" vaporized=""/>
    <tripinfo id="id0.11" depart="9.00" departLane="E0_0" departPos="4.10" departSpeed="50.00" departDelay="5.34" arrival="31.00" arrivalLane="E3_0" arrivalPos="245.77" arrivalSpeed="49.24" duration="22.00" routeLength="836.52" waitingTime="0.00" waitingCount="0" stopTime="0.00" timeLoss="4.91" rerouteNo="1" devices="tripinfo_id0.11 routing_id0.11" vType="id1" speedFactor="1.03" vaporized=""/>
    <tripinfo id="id0.12" depart="10.00" departLane="E0_2" departPos="4.10" departSpeed="50.00" departDelay="6.00" arrival="33.00" arrivalLane="E3_0" arrivalPos="245.77" arrivalSpeed="44.65" duration="23.00" routeLength="836.52" waitingTime="0.00" waitingCount="0" stopTime="0.00" timeLoss="5.73" rerouteNo="1" devices="tripinfo_id0.12 routing_id0.12" vType="id1" speedFactor="1.05" vaporized=""/>
    <tripinfo id="id0.10" depart="8.00" departLane="E0_1" departPos="4.10" departSpeed="50.00" departDelay="4.67" arrival="34.00" arrivalLane="E3_0" arrivalPos="245.77" arrivalSpeed="43.53" duration="26.00" routeLength="836.52" waitingTime="0.00" waitingCount="0" stopTime="0.00" timeLoss="9.06" rerouteNo="1" devices="tripinfo_id0.10 routing_id0.10" vType="id1" speedFactor="1.09" vaporized=""/>
    <tripinfo id="id0.20" depart="11.00" departLane="E0_0" departPos="4.10" departSpeed="50.00" departDelay="4.34" arrival="36.00" arrivalLane="E3_0" arrivalPos="245.77" arrivalSpeed="44.07" duration="25.00" routeLength="836.52" waitingTime="0.00" waitingCount="0" stopTime="0.00" timeLoss="7.58" rerouteNo="1" devices="tripinfo_id0.20 routing_id0.20" vType="id1" speedFactor="1.02" vaporized=""/>
    <tripinfo id="id0.13" depart="12.00" departLane="E0_2" departPos="4.10" departSpeed="50.00" departDelay="7.67" arrival="37.00" arrivalLane="E3_0" arrivalPos="245.77" arrivalSpeed="44.47" duration="25.00" routeLength="836.52" waitingTime="0.00" waitingCount="0" stopTime="0.00" timeLoss="8.00" rerouteNo="1" devices="tripinfo_id0.13 routing_id0.13" vType="id1" speedFactor="1.12" vaporized=""/>
    <tripinfo id="id0.16" depart="12.00" departLane="E0_1" departPos="4.10" departSpeed="50.00" departDelay="6.67" arrival="39.00" arrivalLane="E3_0" arrivalPos="245.77" arrivalSpeed="44.64" duration="27.00" routeLength="836.52" waitingTime="0.00" waitingCount="0" stopTime="0.00" timeLoss="9.53" rerouteNo="1" devices="tripinfo_id0.16 routing_id0.16" vType="id1" speedFactor="1.00" vaporized=""/>
    <tripinfo id="id0.21" depart="14.00" departLane="E0_2" departPos="4.10" departSpeed="50.00" departDelay="7.01" arrival="41.00" arrivalLane="E3_0" arrivalPos="245.77" arrivalSpeed="40.99" duration="27.00" routeLength="836.52" waitingTime="0.00" waitingCount="0" stopTime="0.00" timeLoss="9.66" rerouteNo="1" devices="tripinfo_id0.21 routing_id0.21" vType="id1" speedFactor="1.01" vaporized=""/>
    <tripinfo id="id0.15" depart="13.00" departLane="E0_0" departPos="4.10" departSpeed="50.00" departDelay="8.01" arrival="43.00" arrivalLane="E3_0" arrivalPos="245.77" arrivalSpeed="40.72" duration="30.00" routeLength="836.52" waitingTime="0.00" waitingCount="0" stopTime="0.00" timeLoss="12.47" rerouteNo="1" devices="tripinfo_id0.15 routing_id0.15" vType="id1" speedFactor="1.04" vaporized=""/>
    <tripinfo id="id0.24" depart="16.00" departLane="E0_2" departPos="4.10" departSpeed="50.00" departDelay="8.01" arrival="45.00" arrivalLane="E3_0" arrivalPos="245.77" arrivalSpeed="40.27" duration="29.00" routeLength="836.52" waitingTime="0.00" waitingCount="0" stopTime="0.00" timeLoss="11.64" rerouteNo="1" devices="tripinfo_id0.24 routing_id0.24" vType="id1" speedFactor="1.00" vaporized=""/>
    <tripinfo id="id0.17" depart="15.00" departLane="E0_0" departPos="4.10" departSpeed="50.00" departDelay="9.34" arrival="46.00" arrivalLane="E3_0" arrivalPos="245.77" arrivalSpeed="38.99" duration="31.00" routeLength="836.52" waitingTime="0.00" waitingCount="0" stopTime="0.00" timeLoss="14.01" rerouteNo="1" devices="tripinfo_id0.17 routing_id0.17" vType="id1" speedFactor="1.00" vaporized=""/>
    <tripinfo id="id0.25" depart="19.00" departLane="E0_2" departPos="4.10" departSpeed="50.00" departDelay="10.68" arrival="48.00" arrivalLane="E3_0" arrivalPos="245.77" arrivalSpeed="41.73" duration="29.00" routeLength="836.52" waitingTime="0.00" waitingCount="0" stopTime="0.00" timeLoss="11.53" rerouteNo="1" devices="tripinfo_id0.25 routing_id0.25" vType="id1" speedFactor="1.10" vaporized=""/>
    <tripinfo id="id0.22" depart="21.00" departLane="E0_2" departPos="4.10" departSpeed="50.00" departDelay="13.67" arrival="52.00" arrivalLane="E3_0" arrivalPos="245.77" arrivalSpeed="35.02" duration="31.00" routeLength="836.52" waitingTime="0.00" waitingCount="0" stopTime="0.00" timeLoss="13.71" rerouteNo="1" devices="tripinfo_id0.22 routing_id0.22" vType="id1" speedFactor="1.04" vaporized=""/>
    <tripinfo id="id0.19" depart="15.00" departLane="E0_1" departPos="4.10" departSpeed="50.00" departDelay="8.67" arrival="53.00" arrivalLane="E3_0" arrivalPos="245.77" arrivalSpeed="35.39" duration="38.00" routeLength="836.52" waitingTime="0.00" waitingCount="0" stopTime="0.00" timeLoss="20.96" rerouteNo="1" devices="tripinfo_id0.19 routing_id0.19" vType="id1" speedFactor="1.16" vaporized=""/>
    <tripinfo id="id0.31" depart="23.00" departLane="E0_2" departPos="4.10" departSpeed="50.00" departDelay="12.68" arrival="56.00" arrivalLane="E3_0" arrivalPos="245.77" arrivalSpeed="34.90" duration="33.00" routeLength="836.52" waitingTime="0.00" waitingCount="0" stopTime="0.00" timeLoss="15.73" rerouteNo="1" devices="tripinfo_id0.31 routing_id0.31" vType="id1" speedFactor="1.15" vaporized=""/>
    <tripinfo id="id0.26" depart="17.00" departLane="E0_0" departPos="4.10" departSpeed="50.00" departDelay="8.34" arrival="57.00" arrivalLane="E3_0" arrivalPos="245.77" arrivalSpeed="34.74" duration="40.00" routeLength="836.52" waitingTime="0.00" waitingCount="0" stopTime="0.00" timeLoss="22.98" rerouteNo="1" devices="tripinfo_id0.26 routing_id0.26" vType="id1" speedFactor="1.00" vaporized=""/>
    <tripinfo id="id0.18" depart="18.00" departLane="E0_2" departPos="4.10" departSpeed="50.00" departDelay="12.01" arrival="58.00" arrivalLane="E3_1" arrivalPos="245.77" arrivalSpeed="48.58" duration="40.00" routeLength="828.04" waitingTime="1.00" waitingCount="1" stopTime="0.00" timeLoss="24.39" rerouteNo="1" devices="tripinfo_id0.18 routing_id0.18" vType="id1" speedFactor="1.00" vaporized=""/>
    <tripinfo id="id0.37" depart="27.00" departLane="E0_2" departPos="4.10" departSpeed="50.00" departDelay="14.68" arrival="59.00" arrivalLane="E3_0" arrivalPos="245.77" arrivalSpeed="37.36" duration="32.00" routeLength="836.52" waitingTime="0.00" waitingCount="0" stopTime="0.00" timeLoss="14.92" rerouteNo="1" devices="tripinfo_id0.37 routing_id0.37" vType="id1" speedFactor="1.18" vaporized=""/>
    <tripinfo id="id0.36" depart="25.00" departLane="E0_2" departPos="4.10" departSpeed="50.00" departDelay="13.01" arrival="61.00" arrivalLane="E3_0" arrivalPos="245.77" arrivalSpeed="35.13" duration="36.00" routeLength="836.52" waitingTime="1.00" waitingCount="1" stopTime="0.00" timeLoss="19.07" rerouteNo="1" devices="tripinfo_id0.36 routing_id0.36" vType="id1" speedFactor="1.00" vaporized=""/>
    <tripinfo id="id0.41" depart="29.00" departLane="E0_2" departPos="4.10" departSpeed="50.00" departDelay="15.35" arrival="64.00" arrivalLane="E3_0" arrivalPos="245.77" arrivalSpeed="39.27" duration="35.00" routeLength="836.52" waitingTime="1.00" waitingCount="1" stopTime="0.00" timeLoss="17.52" rerouteNo="1" devices="tripinfo_id0.41 routing_id0.41" vType="id1" speedFactor="1.00" vaporized=""/>
    <tripinfo id="id0.44" depart="31.00" departLane="E0_2" departPos="4.10" departSpeed="50.00" departDelay="16.35" arrival="65.00" arrivalLane="E3_0" arrivalPos="245.77" arrivalSpeed="34.34" duration="34.00" routeLength="836.52" waitingTime="1.00" waitingCount="1" stopTime="0.00" timeLoss="17.17" rerouteNo="1" devices="tripinfo_id0.44 routing_id0.44" vType="id1" speedFactor="1.04" vaporized=""/>
    <tripinfo id="id0.27" depart="19.00" departLane="E0_0" departPos="4.10" departSpeed="50.00" departDelay="10.01" arrival="68.00" arrivalLane="E3_0" arrivalPos="245.77" arrivalSpeed="38.47" duration="49.00" routeLength="836.52" waitingTime="2.00" waitingCount="2" stopTime="0.00" timeLoss="31.66" rerouteNo="1" devices="tripinfo_id0.27 routing_id0.27" vType="id1" speedFactor="1.00" vaporized=""/>
    <tripinfo id="id0.43" depart="33.00" departLane="E0_2" departPos="4.10" departSpeed="50.00" departDelay="18.68" arrival="71.00" arrivalLane="E3_0" arrivalPos="245.77" arrivalSpeed="38.10" duration="38.00" routeLength="836.52" waitingTime="1.00" waitingCount="1" stopTime="0.00" timeLoss="20.94" rerouteNo="1" devices="tripinfo_id0.43 routing_id0.43" vType="id1" speedFactor="1.04" vaporized=""/>
    <tripinfo id="id0.23" depart="21.00" departLane="E0_0" departPos="4.10" departSpeed="50.00" departDelay="13.34" arrival="74.00" arrivalLane="E3_0" arrivalPos="245.77" arrivalSpeed="36.95" duration="53.00" routeLength="836.52" waitingTime="0.00" waitingCount="0" stopTime="0.00" timeLoss="35.67" rerouteNo="1" devices="tripinfo_id0.23 routing_id0.23" vType="id1" speedFactor="1.00" vaporized=""/>
    <tripinfo id="id0.50" depart="35.00" departLane="E0_2" departPos="4.10" departSpeed="50.00" departDelay="18.35" arrival="76.00" arrivalLane="E3_0" arrivalPos="245.77" arrivalSpeed="37.55" duration="41.00" routeLength="836.52" waitingTime="3.00" waitingCount="1" stopTime="0.00" timeLoss="23.55" rerouteNo="1" devices="tripinfo_id0.50 routing_id0.50" vType="id1" speedFactor="1.08" vaporized=""/>
    <tripinfo id="id0.28" depart="23.00" departLane="E0_0" departPos="4.10" departSpeed="50.00" departDelay="13.68" arrival="78.00" arrivalLane="E3_0" arrivalPos="245.77" arrivalSpeed="35.43" duration="55.00" routeLength="836.52" waitingTime="0.00" waitingCount="0" stopTime="0.00" timeLoss="37.60" rerouteNo="1" devices="tripinfo_id0.28 routing_id0.28" vType="id1" speedFactor="1.13" vaporized=""/>
    <tripinfo id="id0.47" depart="37.00" departLane="E0_2" departPos="4.10" departSpeed="50.00" departDelay="21.35" arrival="79.00" arrivalLane="E3_0" arrivalPos="245.77" arrivalSpeed="35.52" duration="42.00" routeLength="836.52" waitingTime="7.00" waitingCount="1" stopTime="0.00" timeLoss="25.21" rerouteNo="1" devices="tripinfo_id0.47 routing_id0.47" vType="id1" speedFactor="1.05" vaporized=""/>
    <tripinfo id="id0.29" depart="20.00" departLane="E0_1" departPos="4.10" departSpeed="50.00" departDelay="10.34" arrival="81.00" arrivalLane="E3_0" arrivalPos="245.77" arrivalSpeed="38.49" duration="61.00" routeLength="836.52" waitingTime="6.00" waitingCount="1" stopTime="0.00" timeLoss="43.68" rerouteNo="1" devices="tripinfo_id0.29 routing_id0.29" vType="id1" speedFactor="1.02" vaporized=""/>
    <tripinfo id="id0.63" depart="39.00" departLane="E0_2" departPos="4.10" departSpeed="50.00" departDelay="18.02" arrival="82.00" arrivalLane="E3_0" arrivalPos="245.77" arrivalSpeed="37.15" duration="43.00" routeLength="836.52" waitingTime="8.00" waitingCount="2" stopTime="0.00" timeLoss="26.12" rerouteNo="1" devices="tripinfo_id0.63 routing_id0.63" vType="id1" speedFactor="1.00" vaporized=""/>
    <tripinfo id="id0.32" depart="23.00" departLane="E0_1" departPos="4.10" departSpeed="50.00" departDelay="12.34" arrival="84.00" arrivalLane="E3_0" arrivalPos="245.77" arrivalSpeed="39.30" duration="61.00" routeLength="836.52" waitingTime="8.00" waitingCount="1" stopTime="0.00" timeLoss="43.70" rerouteNo="1" devices="tripinfo_id0.32 routing_id0.32" vType="id1" speedFactor="1.01" vaporized=""/>
    <tripinfo id="id0.45" depart="35.00" departLane="E0_0" departPos="4.10" departSpeed="50.00" departDelay="20.02" arrival="87.00" arrivalLane="E3_0" arrivalPos="245.77" arrivalSpeed="41.40" duration="52.00" routeLength="836.52" waitingTime="9.00" waitingCount="1" stopTime="0.00" timeLoss="34.50" rerouteNo="1" devices="tripinfo_id0.45 routing_id0.45" vType="id1" speedFactor="1.09" vaporized=""/>
    <tripinfo id="id0.54" depart="41.00" departLane="E0_2" departPos="4.10" departSpeed="50.00" departDelay="23.02" arrival="88.00" arrivalLane="E3_0" arrivalPos="245.77" arrivalSpeed="38.06" duration="47.00" routeLength="836.52" waitingTime="13.00" waitingCount="2" stopTime="0.00" timeLoss="29.97" rerouteNo="1" devices="tripinfo_id0.54 routing_id0.54" vType="id1" speedFactor="1.00" vaporized=""/>
    <tripinfo id="id0.56" depart="43.00" departLane="E0_2" departPos="4.10" departSpeed="50.00" departDelay="24.35" arrival="90.00" arrivalLane="E3_0" arrivalPos="245.77" arrivalSpeed="39.84" duration="47.00" routeLength="836.52" waitingTime="12.00" waitingCount="2" stopTime="0.00" timeLoss="29.77" rerouteNo="1" devices="tripinfo_id0.56 routing_id0.56" vType="id1" speedFactor="1.00" vaporized=""/>
    <tripinfo id="id0.38" depart="25.00" departLane="E0_0" departPos="4.10" departSpeed="50.00" departDelay="12.35" arrival="93.00" arrivalLane="E3_0" arrivalPos="245.77" arrivalSpeed="38.01" duration="68.00" routeLength="836.52" waitingTime="15.00" waitingCount="3" stopTime="0.00" timeLoss="51.00" rerouteNo="1" devices="tripinfo_id0.38 routing_id0.38" vType="id1" speedFactor="1.10" vaporized=""/>
    <tripinfo id="id0.30" depart="27.00" departLane="E0_1" departPos="4.10" departSpeed="50.00" departDelay="17.01" arrival="94.00" arrivalLane="E3_0" arrivalPos="245.77" arrivalSpeed="38.77" duration="67.00" routeLength="836.52" waitingTime="11.00" waitingCount="2" stopTime="0.00" timeLoss="50.27" rerouteNo="1" devices="tripinfo_id0.30 routing_id0.30" vType="id1" speedFactor="1.18" vaporized=""/>
    <tripinfo id="id0.55" depart="41.00" departLane="E0_0" departPos="4.10" departSpeed="50.00" departDelay="22.69" arrival="98.00" arrivalLane="E3_0" arrivalPos="245.77" arrivalSpeed="39.91" duration="57.00" routeLength="836.52" waitingTime="11.00" waitingCount="4" stopTime="0.00" timeLoss="39.63" rerouteNo="1" devices="tripinfo_id0.55 routing_id0.55" vType="id1" speedFactor="1.00" vaporized=""/>
    <tripinfo id="id0.58" depart="45.00" departLane="E0_2" departPos="4.10" departSpeed="50.00" departDelay="25.69" arrival="99.00" arrivalLane="E3_0" arrivalPos="245.77" arrivalSpeed="39.17" duration="54.00" routeLength="836.52" waitingTime="18.00" waitingCount="2" stopTime="0.00" timeLoss="37.10" rerouteNo="1" devices="tripinfo_id0.58 routing_id0.58" vType="id1" speedFactor="1.02" vaporized=""/>
    <tripinfo id="id0.33" depart="27.00" departLane="E0_0" departPos="4.10" departSpeed="50.00" departDelay="16.01" arrival="101.00" arrivalLane="E3_0" arrivalPos="245.77" arrivalSpeed="38.93" duration="74.00" routeLength="836.52" waitingTime="21.00" waitingCount="3" stopTime="0.00" timeLoss="56.78" rerouteNo="1" devices="tripinfo_id0.33 routing_id0.33" vType="id1" speedFactor="1.17" vaporized=""/>
    <tripinfo id="id0.61" depart="45.00" departLane="E0_0" departPos="4.10" departSpeed="50.00" departDelay="24.69" arrival="102.00" arrivalLane="E3_0" arrivalPos="245.77" arrivalSpeed="39.31" duration="57.00" routeLength="836.52" waitingTime="16.00" waitingCount="3" stopTime="0.00" timeLoss="40.08" rerouteNo="1" devices="tripinfo_id0.61 routing_id0.61" vType="id1" speedFactor="1.12" vaporized=""/>
    <tripinfo id="id0.66" depart="47.00" departLane="E0_0" departPos="4.10" departSpeed="50.00" departDelay="25.02" arrival="104.00" arrivalLane="E3_0" arrivalPos="245.77" arrivalSpeed="39.45" duration="57.00" routeLength="836.52" waitingTime="18.00" waitingCount="1" stopTime="0.00" timeLoss="39.93" rerouteNo="1" devices="tripinfo_id0.66 routing_id0.66" vType="id1" speedFactor="1.00" vaporized=""/>
    <tripinfo id="id0.64" depart="49.00" departLane="E0_0" departPos="4.10" departSpeed="50.00" departDelay="27.69" arrival="108.00" arrivalLane="E3_0" arrivalPos="245.77" arrivalSpeed="39.07" duration="59.00" routeLength="836.52" waitingTime="16.00" waitingCount="1" stopTime="0.00" timeLoss="41.75" rerouteNo="1" devices="tripinfo_id0.64 routing_id0.64" vType="id1" speedFactor="1.04" vaporized=""/>
    <tripinfo id="id0.67" depart="49.00" departLane="E0_2" departPos="4.10" departSpeed="50.00" departDelay="26.69" arrival="109.00" arrivalLane="E3_0" arrivalPos="245.77" arrivalSpeed="37.46" duration="60.00" routeLength="836.52" waitingTime="20.00" waitingCount="2" stopTime="0.00" timeLoss="43.16" rerouteNo="1" devices="tripinfo_id0.67 routing_id0.67" vType="id1" speedFactor="1.00" vaporized=""/>
    <tripinfo id="id0.68" depart="47.00" departLane="E0_2" departPos="4.10" departSpeed="50.00" departDelay="24.36" arrival="111.00" arrivalLane="E3_0" arrivalPos="245.77" arrivalSpeed="38.69" duration="64.00" routeLength="836.52" waitingTime="21.00" waitingCount="2" stopTime="0.00" timeLoss="47.03" rerouteNo="1" devices="tripinfo_id0.68 routing_id0.68" vType="id1" speedFactor="1.04" vaporized=""/>
    <tripinfo id="id0.39" depart="31.00" departLane="E0_0" departPos="4.10" departSpeed="50.00" departDelay="18.01" arrival="113.00" arrivalLane="E3_0" arrivalPos="245.77" arrivalSpeed="37.86" duration="82.00" routeLength="836.52" waitingTime="24.00" waitingCount="4" stopTime="0.00" timeLoss="64.80" rerouteNo="1" devices="tripinfo_id0.39 routing_id0.39" vType="id1" speedFactor="1.08" vaporized=""/>
    <tripinfo id="id0.35" depart="29.00" departLane="E0_0" departPos="4.10" departSpeed="50.00" departDelay="17.35" arrival="114.00" arrivalLane="E3_0" arrivalPos="245.77" arrivalSpeed="35.69" duration="85.00" routeLength="836.52" waitingTime="21.00" waitingCount="2" stopTime="0.00" timeLoss="68.09" rerouteNo="1" devices="tripinfo_id0.35 routing_id0.35" vType="id1" speedFactor="1.02" vaporized=""/>
    <tripinfo id="id0.69" depart="51.00" departLane="E0_2" departPos="4.10" departSpeed="50.00" departDelay="28.02" arrival="116.00" arrivalLane="E3_0" arrivalPos="245.77" arrivalSpeed="39.53" duration="65.00" routeLength="836.52" waitingTime="24.00" waitingCount="1" stopTime="0.00" timeLoss="47.58" rerouteNo="1" devices="tripinfo_id0.69 routing_id0.69" vType="id1" speedFactor="1.02" vaporized=""/>
    <tripinfo id="id0.34" depart="29.00" departLane="E0_1" departPos="4.10" departSpeed="50.00" departDelay="17.68" arrival="117.00" arrivalLane="E3_0" arrivalPos="245.77" arrivalSpeed="39.09" duration="88.00" routeLength="836.52" waitingTime="25.00" waitingCount="1" stopTime="0.00" timeLoss="70.94" rerouteNo="1" devices="tripinfo_id0.34 routing_id0.34" vType="id1" speedFactor="1.02" vaporized=""/>
    <tripinfo id="id0.76" depart="53.00" departLane="E0_2" departPos="4.10" departSpeed="50.00" departDelay="27.69" arrival="118.00" arrivalLane="E3_0" arrivalPos="245.77" arrivalSpeed="39.27" duration="65.00" routeLength="836.52" waitingTime="28.00" waitingCount="1" stopTime="0.00" timeLoss="48.17" rerouteNo="1" devices="tripinfo_id0.76 routing_id0.76" vType="id1" speedFactor="1.03" vaporized=""/>
    <tripinfo id="id0.42" depart="33.00" departLane="E0_0" departPos="4.10" departSpeed="50.00" departDelay="19.01" arrival="120.00" arrivalLane="E3_0" arrivalPos="245.77" arrivalSpeed="39.88" duration="87.00" routeLength="836.52" waitingTime="39.00" waitingCount="3" stopTime="0.00" timeLoss="69.82" rerouteNo="1" devices="tripinfo_id0.42 routing_id0.42" vType="id1" speedFactor="1.09" vaporized=""/>
    <tripinfo id="id0.73" depart="55.00" departLane="E0_2" departPos="4.10" departSpeed="50.00" departDelay="30.69" arrival="121.00" arrivalLane="E3_0" arrivalPos="245.77" arrivalSpeed="38.72" duration="66.00" routeLength="836.52" waitingTime="30.00" waitingCount="2" stopTime="0.00" timeLoss="49.14" rerouteNo="1" devices="tripinfo_id0.73 routing_id0.73" vType="id1" speedFactor="1.06" vaporized=""/>
    <tripinfo id="id0.72" depart="57.00" departLane="E0_2" departPos="4.10" departSpeed="50.00" departDelay="33.02" arrival="123.00" arrivalLane="E3_0" arrivalPos="245.77" arrivalSpeed="41.79" duration="66.00" routeLength="836.52" waitingTime="29.00" waitingCount="1" stopTime="0.00" timeLoss="48.54" rerouteNo="1" devices="tripinfo_id0.72 routing_id0.72" vType="id1" speedFactor="1.00" vaporized=""/>
    <tripinfo id="id0.74" depart="59.00" departLane="E0_2" departPos="4.10" departSpeed="50.00" departDelay="34.36" arrival="124.00" arrivalLane="E3_0" arrivalPos="245.77" arrivalSpeed="41.05" duration="65.00" routeLength="836.52" waitingTime="28.00" waitingCount="1" stopTime="0.00" timeLoss="47.84" rerouteNo="1" devices="tripinfo_id0.74 routing_id0.74" vType="id1" speedFactor="1.00" vaporized=""/>
    <tripinfo id="id0.81" depart="61.00" departLane="E0_2" departPos="4.10" departSpeed="50.00" departDelay="34.03" arrival="125.00" arrivalLane="E3_0" arrivalPos="245.77" arrivalSpeed="40.07" duration="64.00" routeLength="836.52" waitingTime="28.00" waitingCount="1" stopTime="0.00" timeLoss="47.21" rerouteNo="1" devices="tripinfo_id0.81 routing_id0.81" vType="id1" speedFactor="1.01" vaporized=""/>
    <tripinfo id="id0.85" depart="63.00" departLane="E0_2" departPos="4.10" departSpeed="50.00" departDelay="34.70" arrival="127.00" arrivalLane="E3_0" arrivalPos="245.77" arrivalSpeed="42.10" duration="64.00" routeLength="836.52" waitingTime="27.00" waitingCount="1" stopTime="0.00" timeLoss="46.64" rerouteNo="1" devices="tripinfo_id0.85 routing_id0.85" vType="id1" speedFactor="1.03" vaporized=""/>
    <tripinfo id="id0.83" depart="65.00" departLane="E0_2" departPos="4.10" departSpeed="50.00" departDelay="37.36" arrival="128.00" arrivalLane="E3_0" arrivalPos="245.77" arrivalSpeed="41.53" duration="63.00" routeLength="836.52" waitingTime="25.00" waitingCount="2" stopTime="0.00" timeLoss="46.02" rerouteNo="1" devices="tripinfo_id0.83 routing_id0.83" vType="id1" speedFactor="1.02" vaporized=""/>
    <tripinfo id="id0.89" depart="67.00" departLane="E0_2" departPos="4.10" departSpeed="50.00" departDelay="37.36" arrival="130.00" arrivalLane="E3_0" arrivalPos="245.77" arrivalSpeed="40.66" duration="63.00" routeLength="836.52" waitingTime="24.00" waitingCount="2" stopTime="0.00" timeLoss="45.65" rerouteNo="1" devices="tripinfo_id0.89 routing_id0.89" vType="id1" speedFactor="1.02" vaporized=""/>
    <tripinfo id="id0.40" depart="33.00" departLane="E0_1" departPos="4.10" departSpeed="50.00" departDelay="19.68" arrival="133.00" arrivalLane="E3_0" arrivalPos="245.77" arrivalSpeed="36.69" duration="100.00" routeLength="836.52" waitingTime="42.00" waitingCount="5" stopTime="0.00" timeLoss="83.12" rerouteNo="1" devices="tripinfo_id0.40 routing_id0.40" vType="id1" speedFactor="1.03" vaporized=""/>
    <tripinfo id="id0.95" depart="69.00" departLane="E0_2" departPos="4.10" departSpeed="50.00" departDelay="37.37" arrival="135.00" arrivalLane="E3_0" arrivalPos="245.77" arrivalSpeed="38.83" duration="66.00" routeLength="836.52" waitingTime="23.00" waitingCount="2" stopTime="0.00" timeLoss="48.83" rerouteNo="1" devices="tripinfo_id0.95 routing_id0.95" vType="id1" speedFactor="1.06" vaporized=""/>
    <tripinfo id="id0.91" depart="71.00" departLane="E0_2" departPos="4.10" departSpeed="50.00" departDelay="40.70" arrival="138.00" arrivalLane="E3_0" arrivalPos="245.77" arrivalSpeed="36.72" duration="67.00" routeLength="836.52" waitingTime="23.00" waitingCount="2" stopTime="0.00" timeLoss="49.55" rerouteNo="1" devices="tripinfo_id0.91 routing_id0.91" vType="id1" speedFactor="1.00" vaporized=""/>
    <tripinfo id="id0.49" depart="37.00" departLane="E0_0" departPos="4.10" departSpeed="50.00" departDelay="20.68" arrival="140.00" arrivalLane="E3_0" arrivalPos="245.77" arrivalSpeed="37.30" duration="103.00" routeLength="836.52" waitingTime="38.00" waitingCount="4" stopTime="0.00" timeLoss="85.59" rerouteNo="1" devices="tripinfo_id0.49 routing_id0.49" vType="id1" speedFactor="1.00" vaporized=""/>
    <tripinfo id="id0.48" depart="39.00" departLane="E0_0" departPos="4.10" departSpeed="50.00" departDelay="23.02" arrival="141.00" arrivalLane="E3_0" arrivalPos="245.77" arrivalSpeed="35.86" duration="102.00" routeLength="836.52" waitingTime="38.00" waitingCount="3" stopTime="0.00" timeLoss="85.08" rerouteNo="1" devices="tripinfo_id0.48 routing_id0.48" vType="id1" speedFactor="1.00" vaporized=""/>
    <tripinfo id="id0.97" depart="73.00" departLane="E0_2" departPos="4.10" departSpeed="50.00" departDelay="40.70" arrival="143.00" arrivalLane="E3_0" arrivalPos="245.77" arrivalSpeed="38.34" duration="70.00" routeLength="836.52" waitingTime="21.00" waitingCount="2" stopTime="0.00" timeLoss="52.72" rerouteNo="1" devices="tripinfo_id0.97 routing_id0.97" vType="id1" speedFactor="1.07" vaporized=""/>