<?xml version="1.0" encoding="UTF-8"?>

<!-- generated on 2024-04-20 19:35:22 by Eclipse SUMO GUI Version 1.19.0
<configuration xmlns:xsi="http://www.w3.org/2001/XMLSchema-instance" xsi:noNamespaceSchemaLocation="http://sumo.dlr.de/xsd/sumoConfiguration.xsd">

    <input>
        <net-file value="test1.net.xml"/>
        <route-files value="test1.rou.xml"/>
        <additional-files value="test1.add.xml"/>
    </input>

    <output>
        <tripinfo-output value="test1.tripinfo.output.xml"/>
        <statistic-output value="test1.statistic.output.xml"/>
    </output>

</configuration>
-->

<tripinfos xmlns:xsi="http://www.w3.org/2001/XMLSchema-instance" xsi:noNamespaceSchemaLocation="http://sumo.dlr.de/xsd/tripinfo_file.xsd">
    <tripinfo id="id0.0" depart="0.00" departLane="E0_2" departPos="4.10" departSpeed="13.89" departDelay="0.00" arrival="45.00" arrivalLane="E3_0" arrivalPos="245.77" arrivalSpeed="12.93" duration="45.00" routeLength="836.52" waitingTime="0.00" waitingCount="0" stopTime="0.00" timeLoss="2.59" rerouteNo="1" devices="tripinfo_id0.0 routing_id0.0" vType="id4" speedFactor="1.06" vaporized=""/>
    <tripinfo id="id0.3" depart="1.00" departLane="E0_0" departPos="4.10" departSpeed="13.89" departDelay="0.75" arrival="47.00" arrivalLane="E3_0" arrivalPos="245.77" arrivalSpeed="13.20" duration="46.00" routeLength="836.52" waitingTime="0.00" waitingCount="0" stopTime="0.00" timeLoss="3.63" rerouteNo="1" devices="tripinfo_id0.3 routing_id0.3" vType="id4" speedFactor="1.08" vaporized=""/>
    <tripinfo id="id0.4" depart="2.00" departLane="E0_2" departPos="4.10" departSpeed="13.89" departDelay="1.67" arrival="49.00" arrivalLane="E3_0" arrivalPos="245.77" arrivalSpeed="13.42" duration="47.00" routeLength="836.52" waitingTime="0.00" waitingCount="0" stopTime="0.00" timeLoss="4.55" rerouteNo="1" devices="tripinfo_id0.4 routing_id0.4" vType="id4" speedFactor="1.03" vaporized=""/>
    <tripinfo id="id0.2" depart="4.00" departLane="E0_2" departPos="4.10" departSpeed="13.89" departDelay="3.83" arrival="50.00" arrivalLane="E3_0" arrivalPos="245.77" arrivalSpeed="12.99" duration="46.00" routeLength="836.52" waitingTime="0.00" waitingCount="0" stopTime="0.00" timeLoss="4.15" rerouteNo="1" devices="tripinfo_id0.2 routing_id0.2" vType="id4" speedFactor="1.01" vaporized=""/>
    <tripinfo id="id0.9" depart="6.00" departLane="E0_2" departPos="4.10" departSpeed="13.89" departDelay="5.25" arrival="52.00" arrivalLane="E3_0" arrivalPos="245.77" arrivalSpeed="13.56" duration="46.00" routeLength="836.52" waitingTime="0.00" waitingCount="0" stopTime="0.00" timeLoss="4.01" rerouteNo="1" devices="tripinfo_id0.9 routing_id0.9" vType="id4" speedFactor="0.86" vaporized=""/>
    <tripinfo id="id0.21" depart="8.00" departLane="E0_2" departPos="4.10" departSpeed="13.89" departDelay="6.26" arrival="54.00" arrivalLane="E3_0" arrivalPos="245.77" arrivalSpeed="13.78" duration="46.00" routeLength="836.52" waitingTime="0.00" waitingCount="0" stopTime="0.00" timeLoss="4.01" rerouteNo="1" devices="tripinfo_id0.21 routing_id0.21" vType="id4" speedFactor="1.01" vaporized=""/>
    <tripinfo id="id0.20" depart="10.00" departLane="E0_2" departPos="4.10" departSpeed="13.89" departDelay="8.34" arrival="56.00" arrivalLane="E3_0" arrivalPos="245.77" arrivalSpeed="13.26" duration="46.00" routeLength="836.52" waitingTime="0.00" waitingCount="0" stopTime="0.00" timeLoss="3.99" rerouteNo="1" devices="tripinfo_id0.20 routing_id0.20" vType="id4" speedFactor="1.02" vaporized=""/>
    <tripinfo id="id0.17" depart="12.00" departLane="E0_2" departPos="4.10" departSpeed="13.89" departDelay="10.59" arrival="58.00" arrivalLane="E3_0" arrivalPos="245.77" arrivalSpeed="13.65" duration="46.00" routeLength="836.52" waitingTime="0.00" waitingCount="0" stopTime="0.00" timeLoss="3.93" rerouteNo="1" devices="tripinfo_id0.17 routing_id0.17" vType="id4" speedFactor="0.94" vaporized=""/>
    <tripinfo id="id0.16" depart="14.00" departLane="E0_2" departPos="4.10" departSpeed="13.89" departDelay="12.67" arrival="61.00" arrivalLane="E3_0" arrivalPos="245.77" arrivalSpeed="12.84" duration="47.00" routeLength="836.52" waitingTime="0.00" waitingCount="0" stopTime="0.00" timeLoss="4.73" rerouteNo="1" devices="tripinfo_id0.16 routing_id0.16" vType="id4" speedFactor="0.88" vaporized=""/>
    <tripinfo id="id0.15" depart="7.00" departLane="E0_0" departPos="4.10" departSpeed="13.89" departDelay="5.76" arrival="64.00" arrivalLane="E3_0" arrivalPos="245.77" arrivalSpeed="13.28" duration="57.00" routeLength="836.52" waitingTime="0.00" waitingCount="0" stopTime="0.00" timeLoss="14.60" rerouteNo="1" devices="tripinfo_id0.15 routing_id0.15" vType="id4" speedFactor="0.93" vaporized=""/>
    <tripinfo id="id0.1" depart="1.00" departLane="E0_1" departPos="4.10" departSpeed="13.89" departDelay="0.92" arrival="66.00" arrivalLane="E3_0" arrivalPos="245.77" arrivalSpeed="12.68" duration="65.00" routeLength="836.52" waitingTime="0.00" waitingCount="0" stopTime="0.00" timeLoss="22.56" rerouteNo="1" devices="tripinfo_id0.1 routing_id0.1" vType="id4" speedFactor="0.94" vaporized=""/>
    <tripinfo id="id0.23" depart="16.00" departLane="E0_2" departPos="4.10" departSpeed="13.89" departDelay="14.09" arrival="67.00" arrivalLane="E3_0" arrivalPos="245.77" arrivalSpeed="13.40" duration="51.00" routeLength="836.52" waitingTime="0.00" waitingCount="0" stopTime="0.00" timeLoss="9.10" rerouteNo="1" devices="tripinfo_id0.23 routing_id0.23" vType="id4" speedFactor="0.89" vaporized=""/>
    <tripinfo id="id0.12" depart="3.00" departLane="E0_0" departPos="4.10" departSpeed="13.89" departDelay="2.00" arrival="70.00" arrivalLane="E3_0" arrivalPos="245.77" arrivalSpeed="13.88" duration="67.00" routeLength="836.52" waitingTime="0.00" waitingCount="0" stopTime="0.00" timeLoss="24.58" rerouteNo="1" devices="tripinfo_id0.12 routing_id0.12" vType="id4" speedFactor="1.05" vaporized=""/>
    <tripinfo id="id0.26" depart="18.00" departLane="E0_2" departPos="4.10" departSpeed="13.89" departDelay="15.84" arrival="72.00" arrivalLane="E3_0" arrivalPos="245.77" arrivalSpeed="13.77" duration="54.00" routeLength="836.52" waitingTime="0.00" waitingCount="0" stopTime="0.00" timeLoss="11.74" rerouteNo="1" devices="tripinfo_id0.26 routing_id0.26" vType="id4" speedFactor="0.92" vaporized=""/>
    <tripinfo id="id0.25" depart="20.00" departLane="E0_2" departPos="4.10" departSpeed="13.89" departDelay="17.93" arrival="74.00" arrivalLane="E3_0" arrivalPos="245.77" arrivalSpeed="12.51" duration="54.00" routeLength="836.52" waitingTime="0.00" waitingCount="0" stopTime="0.00" timeLoss="11.79" rerouteNo="1" devices="tripinfo_id0.25 routing_id0.25" vType="id4" speedFactor="0.87" vaporized=""/>
    <tripinfo id="id0.27" depart="15.00" departLane="E0_0" departPos="4.10" departSpeed="13.89" departDelay="12.76" arrival="77.00" arrivalLane="E3_0" arrivalPos="245.77" arrivalSpeed="12.96" duration="62.00" routeLength="836.52" waitingTime="7.00" waitingCount="1" stopTime="0.00" timeLoss="19.60" rerouteNo="1" devices="tripinfo_id0.27 routing_id0.27" vType="id4" speedFactor="0.95" vaporized=""/>
    <tripinfo id="id0.29" depart="19.00" departLane="E0_0" departPos="4.10" departSpeed="13.89" departDelay="16.59" arrival="79.00" arrivalLane="E3_0" arrivalPos="245.77" arrivalSpeed="12.43" duration="60.00" routeLength="836.52" waitingTime="6.00" waitingCount="1" stopTime="0.00" timeLoss="17.64" rerouteNo="1" devices="tripinfo_id0.29 routing_id0.29" vType="id4" speedFactor="0.93" vaporized=""/>
    <tripinfo id="id0.34" depart="22.00" departLane="E0_2" departPos="4.10" departSpeed="13.89" departDelay="19.18" arrival="81.00" arrivalLane="E3_0" arrivalPos="245.77" arrivalSpeed="13.74" duration="59.00" routeLength="836.52" waitingTime="1.00" waitingCount="1" stopTime="0.00" timeLoss="16.82" rerouteNo="1" devices="tripinfo_id0.34 routing_id0.34" vType="id4" speedFactor="0.99" vaporized=""/>
    <tripinfo id="id0.5" depart="3.00" departLane="E0_1" departPos="4.10" departSpeed="13.89" departDelay="2.59" arrival="83.00" arrivalLane="E3_0" arrivalPos="245.77" arrivalSpeed="13.14" duration="80.00" routeLength="836.52" waitingTime="7.00" waitingCount="3" stopTime="0.00" timeLoss="38.02" rerouteNo="1" devices="tripinfo_id0.5 routing_id0.5" vType="id4" speedFactor="0.83" vaporized=""/>
    <tripinfo id="id0.31" depart="24.00" departLane="E0_2" departPos="4.10" departSpeed="13.89" departDelay="21.43" arrival="85.00" arrivalLane="E3_0" arrivalPos="245.77" arrivalSpeed="13.71" duration="61.00" routeLength="836.52" waitingTime="2.00" waitingCount="2" stopTime="0.00" timeLoss="18.98" rerouteNo="1" devices="tripinfo_id0.31 routing_id0.31" vType="id4" speedFactor="1.15" vaporized=""/>
    <tripinfo id="id0.6" depart="5.00" departLane="E0_0" departPos="4.10" departSpeed="13.89" departDelay="4.50" arrival="88.00" arrivalLane="E3_0" arrivalPos="245.77" arrivalSpeed="13.45" duration="83.00" routeLength="836.52" waitingTime="7.00" waitingCount="4" stopTime="0.00" timeLoss="40.58" rerouteNo="1" devices="tripinfo_id0.6 routing_id0.6" vType="id4" speedFactor="1.05" vaporized=""/>
    <tripinfo id="id0.40" depart="26.00" departLane="E0_2" departPos="4.10" departSpeed="13.89" departDelay="22.68" arrival="90.00" arrivalLane="E3_0" arrivalPos="245.77" arrivalSpeed="13.52" duration="64.00" routeLength="836.52" waitingTime="3.00" waitingCount="3" stopTime="0.00" timeLoss="21.54" rerouteNo="1" devices="tripinfo_id0.40 routing_id0.40" vType="id4" speedFactor="1.03" vaporized=""/>
    <tripinfo id="id0.30" depart="21.00" departLane="E0_0" departPos="4.10" departSpeed="13.89" departDelay="18.51" arrival="92.00" arrivalLane="E3_0" arrivalPos="245.77" arrivalSpeed="13.70" duration="71.00" routeLength="836.52" waitingTime="11.00" waitingCount="3" stopTime="0.00" timeLoss="28.54" rerouteNo="1" devices="tripinfo_id0.30 routing_id0.30" vType="id4" speedFactor="1.18" vaporized=""/>
    <tripinfo id="id0.38" depart="23.00" departLane="E0_0" departPos="4.10" departSpeed="13.89" departDelay="19.85" arrival="93.00" arrivalLane="E3_0" arrivalPos="245.77" arrivalSpeed="13.62" duration="70.00" routeLength="836.52" waitingTime="11.00" waitingCount="3" stopTime="0.00" timeLoss="28.10" rerouteNo="1" devices="tripinfo_id0.38 routing_id0.38" vType="id4" speedFactor="1.10" vaporized=""/>
    <tripinfo id="id0.41" depart="28.00" departLane="E0_2" departPos="4.10" departSpeed="13.89" departDelay="24.60" arrival="96.00" arrivalLane="E3_0" arrivalPos="245.77" arrivalSpeed="13.25" duration="68.00" routeLength="836.52" waitingTime="6.00" waitingCount="3" stopTime="0.00" timeLoss="25.56" rerouteNo="1" devices="tripinfo_id0.41 routing_id0.41" vType="id4" speedFactor="0.96" vaporized=""/>
    <tripinfo id="id0.8" depart="5.00" departLane="E0_1" departPos="4.10" departSpeed="13.89" departDelay="4.34" arrival="98.00" arrivalLane="E3_0" arrivalPos="245.77" arrivalSpeed="13.52" duration="93.00" routeLength="836.52" waitingTime="17.00" waitingCount="5" stopTime="0.00" timeLoss="50.52" rerouteNo="1" devices="tripinfo_id0.8 routing_id0.8" vType="id4" speedFactor="0.94" vaporized=""/>
    <tripinfo id="id0.44" depart="30.00" departLane="E0_2" departPos="4.10" departSpeed="13.89" departDelay="26.35" arrival="99.00" arrivalLane="E3_0" arrivalPos="245.77" arrivalSpeed="13.62" duration="69.00" routeLength="836.52" waitingTime="8.00" waitingCount="3" stopTime="0.00" timeLoss="27.16" rerouteNo="1" devices="tripinfo_id0.44 routing_id0.44" vType="id4" speedFactor="1.04" vaporized=""/>
    <tripinfo id="id0.7" depart="9.00" departLane="E0_0" departPos="4.10" departSpeed="13.89" departDelay="8.42" arrival="102.00" arrivalLane="E3_0" arrivalPos="245.77" arrivalSpeed="13.24" duration="93.00" routeLength="836.52" waitingTime="18.00" waitingCount="6" stopTime="0.00" timeLoss="50.58" rerouteNo="1" devices="tripinfo_id0.7 routing_id0.7" vType="id4" speedFactor="0.89" vaporized=""/>
    <tripinfo id="id0.37" depart="25.00" departLane="E0_0" departPos="4.10" departSpeed="13.89" departDelay="21.93" arrival="104.00" arrivalLane="E3_0" arrivalPos="245.77" arrivalSpeed="13.85" duration="79.00" routeLength="836.52" waitingTime="24.00" waitingCount="2" stopTime="0.00" timeLoss="36.56" rerouteNo="1" devices="tripinfo_id0.37 routing_id0.37" vType="id4" speedFactor="1.18" vaporized=""/>
    <tripinfo id="id0.42" depart="27.00" departLane="E0_0" departPos="4.10" departSpeed="13.89" departDelay="23.51" arrival="105.00" arrivalLane="E3_0" arrivalPos="245.77" arrivalSpeed="12.52" duration="78.00" routeLength="836.52" waitingTime="24.00" waitingCount="2" stopTime="0.00" timeLoss="36.14" rerouteNo="1" devices="tripinfo_id0.42 routing_id0.42" vType="id4" speedFactor="1.09" vaporized=""/>
    <tripinfo id="id0.10" depart="11.00" departLane="E0_0" departPos="4.10" departSpeed="13.89" departDelay="10.17" arrival="107.00" arrivalLane="E3_0" arrivalPos="245.77" arrivalSpeed="13.52" duration="96.00" routeLength="836.52" waitingTime="19.00" waitingCount="5" stopTime="0.00" timeLoss="54.14" rerouteNo="1" devices="tripinfo_id0.10 routing_id0.10" vType="id4" speedFactor="1.09" vaporized=""/>
    <tripinfo id="id0.51" depart="42.00" departLane="E0_2" departPos="4.10" departSpeed="13.89" departDelay="37.77" arrival="109.00" arrivalLane="E3_0" arrivalPos="245.77" arrivalSpeed="12.95" duration="67.00" routeLength="828.12" waitingTime="8.00" waitingCount="4" stopTime="0.00" timeLoss="34.91" rerouteNo="1" devices="tripinfo_id0.51 routing_id0.51" vType="id4" speedFactor="1.17" vaporized=""/>
    <tripinfo id="id0.36" depart="32.00" departLane="E0_2" departPos="4.10" departSpeed="13.89" departDelay="29.01" arrival="111.00" arrivalLane="E3_0" arrivalPos="245.77" arrivalSpeed="12.81" duration="79.00" routeLength="836.52" waitingTime="15.00" waitingCount="5" stopTime="0.00" timeLoss="37.06" rerouteNo="1" devices="tripinfo_id0.36 routing_id0.36" vType="id4" speedFactor="0.97" vaporized=""/>
    <tripinfo id="id0.46" depart="34.00" departLane="E0_2" departPos="4.10" departSpeed="13.89" departDelay="30.18" arrival="113.00" arrivalLane="E3_0" arrivalPos="245.77" arrivalSpeed="12.58" duration="79.00" routeLength="836.52" waitingTime="14.00" waitingCount="4" stopTime="0.00" timeLoss="36.96" rerouteNo="1" devices="tripinfo_id0.46 routing_id0.46" vType="id4" speedFactor="1.00" vaporized=""/>
    <tripinfo id="id0.24" depart="17.00" departLane="E0_0" departPos="4.10" departSpeed="13.89" departDelay="15.01" arrival="115.00" arrivalLane="E3_0" arrivalPos="245.77" arrivalSpeed="12.48" duration="98.00" routeLength="836.52" waitingTime="23.00" waitingCount="5" stopTime="0.00" timeLoss="55.90" rerouteNo="1" devices="tripinfo_id0.24 routing_id0.24" vType="id4" speedFactor="0.83" vaporized=""/>
    <tripinfo id="id0.103" depart="80.00" departLane="E0_2" departPos="4.10" departSpeed="13.89" departDelay="71.45" arrival="117.00" arrivalLane="E3_0" arrivalPos="245.77" arrivalSpeed="12.45" duration="37.00" routeLength="836.22" waitingTime="9.00" waitingCount="1" stopTime="0.00" timeLoss="15.58" rerouteNo="1" devices="tripinfo_id0.103 routing_id0.103" vType="id4" speedFactor="0.95" vaporized=""/>
    <tripinfo id="id0.50" depart="36.00" departLane="E0_2" departPos="4.10" departSpeed="13.89" departDelay="31.85" arrival="119.00" arrivalLane="E3_0" arrivalPos="245.77" arrivalSpeed="12.58" duration="83.00" routeLength="836.52" waitingTime="15.00" waitingCount="6" stopTime="0.00" timeLoss="40.72" rerouteNo="1" devices="tripinfo_id0.50 routing_id0.50" vType="id4" speedFactor="0.85" vaporized=""/>
    <tripinfo id="id0.58" depart="38.00" departLane="E0_2" departPos="4.10" departSpeed="13.89" departDelay="33.19" arrival="121.00" arrivalLane="E3_0" arrivalPos="245.77" arrivalSpeed="13.50" duration="83.00" routeLength="836.52" waitingTime="14.00" waitingCount="7" stopTime="0.00" timeLoss="40.57" rerouteNo="1" devices="tripinfo_id0.58 routing_id0.58" vType="id4" speedFactor="1.02" vaporized=""/>
    <tripinfo id="id0.48" depart="31.00" departLane="E0_0" departPos="4.10" departSpeed="13.89" departDelay="27.02" arrival="123.00" arrivalLane="E3_0" arrivalPos="245.77" arrivalSpeed="12.50" duration="92.00" routeLength="836.52" waitingTime="33.00" waitingCount="2" stopTime="0.00" timeLoss="49.62" rerouteNo="1" devices="tripinfo_id0.48 routing_id0.48" vType="id4" speedFactor="0.88" vaporized=""/>
    <tripinfo id="id0.57" depart="40.00" departLane="E0_2" departPos="4.10" departSpeed="13.89" departDelay="35.27" arrival="124.00" arrivalLane="E3_0" arrivalPos="245.77" arrivalSpeed="13.23" duration="84.00" routeLength="836.52" waitingTime="12.00" waitingCount="5" stopTime="0.00" timeLoss="42.15" rerouteNo="1" devices="tripinfo_id0.57 routing_id0.57" vType="id4" speedFactor="1.14" vaporized=""/>
    <tripinfo id="id0.47" depart="35.00" departLane="E0_0" departPos="4.10" departSpeed="13.89" departDelay="31.10" arrival="126.00" arrivalLane="E3_0" arrivalPos="245.77" arrivalSpeed="12.55" duration="91.00" routeLength="836.52" waitingTime="35.00" waitingCount="2" stopTime="0.00" timeLoss="49.13" rerouteNo="1" devices="tripinfo_id0.47 routing_id0.47" vType="id4" speedFactor="0.90" vaporized=""/>
    <tripinfo id="id0.52" depart="37.00" departLane="E0_0" departPos="4.10" departSpeed="13.89" departDelay="32.68" arrival="128.00" arrivalLane="E3_0" arrivalPos="245.77" arrivalSpeed="12.67" duration="91.00" routeLength="836.52" waitingTime="36.00" waitingCount="2" stopTime="0.00" timeLoss="49.01" rerouteNo="1" devices="tripinfo_id0.52 routing_id0.52" vType="id4" speedFactor="1.02" vaporized=""/>
    <tripinfo id="id0.80" depart="60.00" departLane="E0_2" departPos="4.10" departSpeed="13.89" departDelay="53.36" arrival="129.00" arrivalLane="E3_1" arrivalPos="245.77" arrivalSpeed="12.92" duration="69.00" routeLength="819.64" waitingTime="23.00" waitingCount="7" stopTime="0.00" timeLoss="42.90" rerouteNo="1" devices="tripinfo_id0.80 routing_id0.80" vType="id4" speedFactor="1.03" vaporized=""/>
    <tripinfo id="id0.72" depart="54.00" departLane="E0_2" departPos="4.10" departSpeed="13.89" departDelay="48.02" arrival="130.00" arrivalLane="E3_0" arrivalPos="245.77" arrivalSpeed="13.56" duration="76.00" routeLength="828.12" waitingTime="18.00" waitingCount="8" stopTime="0.00" timeLoss="46.95" rerouteNo="1" devices="tripinfo_id0.72 routing_id0.72" vType="id4" speedFactor="0.94" vaporized=""/>
    <tripinfo id="id0.45" depart="33.00" departLane="E0_0" departPos="4.10" departSpeed="13.89" departDelay="29.27" arrival="132.00" arrivalLane="E3_0" arrivalPos="245.77" arrivalSpeed="13.07" duration="99.00" routeLength="836.52" waitingTime="34.00" waitingCount="3" stopTime="0.00" timeLoss="56.85" rerouteNo="1" devices="tripinfo_id0.45 routing_id0.45" vType="id4" speedFactor="1.09" vaporized=""/>
    <tripinfo id="id0.54" depart="43.00" departLane="E0_1" departPos="4.10" departSpeed="13.89" departDelay="38.52" arrival="134.00" arrivalLane="E3_0" arrivalPos="245.77" arrivalSpeed="13.05" duration="91.00" routeLength="828.12" waitingTime="43.00" waitingCount="5" stopTime="0.00" timeLoss="65.52" rerouteNo="1" devices="tripinfo_id0.54 routing_id0.54" vType="id4" speedFactor="1.00" vaporized=""/>
    <tripinfo id="id0.49" depart="39.00" departLane="E0_1" departPos="4.10" departSpeed="13.89" departDelay="34.93" arrival="137.00" arrivalLane="E3_0" arrivalPos="245.77" arrivalSpeed="13.48" duration="98.00" routeLength="828.12" waitingTime="46.00" waitingCount="5" stopTime="0.00" timeLoss="70.76" rerouteNo="1" devices="tripinfo_id0.49 routing_id0.49" vType="id4" speedFactor="0.85" vaporized=""/>
    <tripinfo id="id0.43" depart="29.00" departLane="E0_0" departPos="4.10" departSpeed="13.89" departDelay="25.43" arrival="139.00" arrivalLane="E3_0" arrivalPos="245.77" arrivalSpeed="13.21" duration="110.00" routeLength="836.52" waitingTime="37.00" waitingCount="4" stopTime="0.00" timeLoss="67.62" rerouteNo="1" devices="tripinfo_id0.43 routing_id0.43" vType="id4" speedFactor="1.04" vaporized=""/>
    <tripinfo id="id0.28" depart="11.00" departLane="E0_1" departPos="4.10" departSpeed="13.89" departDelay="8.68" arrival="141.00" arrivalLane="E3_0" arrivalPos="245.77" arrivalSpeed="12.89" duration="130.00" routeLength="836.52" waitingTime="32.00" waitingCount="4" stopTime="0.00" timeLoss="87.96" rerouteNo="1" devices="tripinfo_id0.28 routing_id0.28" vType="id4" speedFactor="1.13" vaporized=""/>
    <tripinfo id="id0.56" depart="41.00" departLane="E0_0" departPos="4.10" departSpeed="13.89" departDelay="36.35" arrival="143.00" arrivalLane="E3_0" arrivalPos="245.77" arrivalSpeed="13.36" duration="102.00" routeLength="836.52" waitingTime="40.00" waitingCount="2" stopTime="0.00" timeLoss="59.86" rerouteNo="1" devices="tripinfo_id0.56 routing_id0.56" vType="id4" speedFactor="0.90" vaporized=""/>
    <tripinfo id="id0.100" depart="78.00" departLane="E0_2" departPos="4.10" departSpeed="13.89" departDelay="69.70" arrival="145.00" arrivalLane="E3_0" arrivalPos="245.77" arrivalSpeed="13.09" duration="67.00" routeLength="828.12" waitingTime="27.00" waitingCount="4" stopTime="0.00" timeLoss="48.23" rerouteNo="1" devices="tripinfo_id0.100 routing_id0.100" vType="id4" speedFactor="1.06" vaporized=""/>
    <tripinfo id="id0.65" depart="50.00" departLane="E0_2" departPos="4.10" departSpeed="13.89" departDelay="44.61" arrival="148.00" arrivalLane="E3_0" arrivalPos="245.77" arrivalSpeed="13.65" duration="98.00" routeLength="836.52" waitingTime="10.00" waitingCount="9" stopTime="0.00" timeLoss="55.57" rerouteNo="1" devices="tripinfo_id0.65 routing_id0.65" vType="id4" speedFactor="0.88" vaporized=""/>
    <tripinfo id="id0.63" depart="46.00" departLane="E0_2" departPos="4.10" departSpeed="13.89" departDelay="40.77" arrival="150.00" arrivalLane="E3_0" arrivalPos="245.77" arrivalSpeed="13.41" duration="104.00" routeLength="836.52" waitingTime="12.00" waitingCount="8" stopTime="0.00" timeLoss="61.65" rerouteNo="1" devices="tripinfo_id0.63 routing_id0.63" vType="id4" speedFactor="0.99" vaporized=""/>
    <tripinfo id="id0.60" depart="43.00" departLane="E0_0" departPos="4.10" departSpeed="13.89" departDelay="38.02" arrival="152.00" arrivalLane="E3_0" arrivalPos="245.77" arrivalSpeed="12.86" duration="109.00" routeLength="836.52" waitingTime="43.00" waitingCount="3" stopTime="0.00" timeLoss="66.54" rerouteNo="1" devices="tripinfo_id0.60 routing_id0.60" vType="id4" speedFactor="1.08" vaporized=""/>
    <tripinfo id="id0.59" depart="44.00" departLane="E0_2" departPos="4.10" departSpeed="13.89" departDelay="39.10" arrival="153.00" arrivalLane="E3_0" arrivalPos="245.77" arrivalSpeed="12.99" duration="109.00" routeLength="836.52" waitingTime="8.00" waitingCount="7" stopTime="0.00" timeLoss="67.11" rerouteNo="1" devices="tripinfo_id0.59 routing_id0.59" vType="id4" speedFactor="0.97" vaporized=""/>
    <tripinfo id="id0.66" depart="48.00" departLane="E0_2" departPos="4.10" departSpeed="13.89" departDelay="42.52" arrival="155.00" arrivalLane="E3_0" arrivalPos="245.77" arrivalSpeed="12.41" duration="107.00" routeLength="836.52" waitingTime="9.00" waitingCount="7" stopTime="0.00" timeLoss="65.02" rerouteNo="1" devices="tripinfo_id0.66 routing_id0.66" vType="id4" speedFactor="0.91" vaporized=""/>
    <tripinfo id="id0.33" depart="24.00" departLane="E0_1" departPos="4.10" departSpeed="13.89" departDelay="21.26" arrival="157.00" arrivalLane="E3_0" arrivalPos="245.77" arrivalSpeed="13.34" duration="133.00" routeLength="836.52" waitingTime="46.00" waitingCount="5" stopTime="0.00" timeLoss="90.84" rerouteNo="1" devices="tripinfo_id0.33 routing_id0.33" vType="id4" speedFactor="1.17" vaporized=""/>
    <tripinfo id="id0.11" depart="7.00" departLane="E0_1" departPos="4.10" departSpeed="13.89" departDelay="6.09" arrival="159.00" arrivalLane="E3_0" arrivalPos="245.77" arrivalSpeed="13.18" duration="152.00" routeLength="836.52" waitingTime="45.00" waitingCount="7" stopTime="0.00" timeLoss="110.02" rerouteNo="1" devices="tripinfo_id0.11 routing_id0.11" vType="id4" speedFactor="1.03" vaporized=""/>
    <tripinfo id="id0.19" depart="17.00" departLane="E0_1" departPos="4.10" departSpeed="13.89" departDelay="15.42" arrival="161.00" arrivalLane="E3_0" arrivalPos="245.77" arrivalSpeed="13.26" duration="144.00" routeLength="836.52" waitingTime="41.00" waitingCount="4" stopTime="0.00" timeLoss="101.96" rerouteNo="1" devices="tripinfo_id0.19 routing_id0.19" vType="id4" speedFactor="1.16" vaporized=""/>
    <tripinfo id="id0.75" depart="56.00" departLane="E0_2" departPos="4.10" departSpeed="13.89" departDelay="49.78" arrival="164.00" arrivalLane="E3_0" arrivalPos="245.77" arrivalSpeed="13.47" duration="108.00" routeLength="836.52" waitingTime="17.00" waitingCount="9" stopTime="0.00" timeLoss="65.69" rerouteNo="1" devices="tripinfo_id0.75 routing_id0.75" vType="id4" speedFactor="0.98" vaporized=""/>
    <tripinfo id="id0.18" depart="9.00" departLane="E0_1" departPos="4.10" departSpeed="13.89" departDelay="7.51" arrival="166.00" arrivalLane="E3_0" arrivalPos="245.77" arrivalSpeed="13.04" duration="157.00" routeLength="836.52" waitingTime="46.00" waitingCount="8" stopTime="0.00" timeLoss="114.75" rerouteNo="1" devices="tripinfo_id0.18 routing_id0.18" vType="id4" speedFactor="0.94" vaporized=""/>
    <tripinfo id="id0.62" depart="49.00" departLane="E0_0" departPos="4.10" departSpeed="13.89" departDelay="43.85" arrival="168.00" arrivalLane="E3_0" arrivalPos="245.77" arrivalSpeed="12.78" duration="119.00" routeLength="836.52" waitingTime="50.00" waitingCount="3" stopTime="0.00" timeLoss="76.66" rerouteNo="1" devices="tripinfo_id0.62 routing_id0.62" vType="id4" speedFactor="1.02" vaporized=""/>
    <tripinfo id="id0.55" depart="35.00" departLane="E0_1" departPos="4.10" departSpeed="13.89" departDelay="30.44" arrival="170.00" arrivalLane="E3_0" arrivalPos="245.77" arrivalSpeed="13.02" duration="135.00" routeLength="836.52" waitingTime="49.00" waitingCount="6" stopTime="0.00" timeLoss="92.57" rerouteNo="1" devices="tripinfo_id0.55 routing_id0.55" vType="id4" speedFactor="1.00" vaporized=""/>
    <tripinfo id="id0.68" depart="53.00" departLane="E0_0" departPos="4.10" departSpeed="13.89" departDelay="47.36" arrival="171.00" arrivalLane="E3_0" arrivalPos="245.77" arrivalSpeed="12.98" duration="118.00" routeLength="836.52" waitingTime="47.00" waitingCount="3" stopTime="0.00" timeLoss="76.13" rerouteNo="1" devices="tripinfo_id0.68 routing_id0.68" vType="id4" speedFactor="1.04" vaporized=""/>
    <tripinfo id="id0.70" depart="51.00" departLane="E0_0" departPos="4.10" departSpeed="13.89" departDelay="45.19" arrival="173.00" arrivalLane="E3_0" arrivalPos="245.77" arrivalSpeed="13.55" duration="122.00" routeLength="836.52" waitingTime="51.00" waitingCount="6" stopTime="0.00" timeLoss="80.01" rerouteNo="1" devices="tripinfo_id0.70 routing_id0.70" vType="id4" speedFactor="1.02" vaporized=""/>
    <tripinfo id="id0.73" depart="52.00" departLane="E0_2" departPos="4.10" departSpeed="13.89" departDelay="45.94" arrival="175.00" arrivalLane="E3_0" arrivalPos="245.77" arrivalSpeed="13.65" duration="123.00" routeLength="836.52" waitingTime="20.00" waitingCount="13" stopTime="0.00" timeLoss="80.87" rerouteNo="1" devices="tripinfo_id0.73 routing_id0.73" vType="id4" speedFactor="1.06" vaporized=""/>
    <tripinfo id="id0.81" depart="64.00" departLane="E0_2" departPos="4.10" departSpeed="13.89" departDelay="57.28" arrival="177.00" arrivalLane="E3_0" arrivalPos="245.77" arrivalSpeed="12.42" duration="113.00" routeLength="836.52" waitingTime="22.00" waitingCount="6" stopTime="0.00" timeLoss="70.86" rerouteNo="1" devices="tripinfo_id0.81 routing_id0.81" vType="id4" speedFactor="1.00" vaporized=""/>
    <tripinfo id="id0.13" depart="13.00" departLane="E0_0" departPos="4.10" departSpeed="13.89" departDelay="11.92" arrival="179.00" arrivalLane="E3_0" arrivalPos="245.77" arrivalSpeed="12.93" duration="166.00" routeLength="836.52" waitingTime="52.00" waitingCount="10" stopTime="0.00" timeLoss="123.75" rerouteNo="1" devices="tripinfo_id0.13 routing_id0.13" vType="id4" speedFactor="1.12" vaporized=""/>
    <tripinfo id="id0.85" depart="62.00" departLane="E0_0" departPos="4.10" departSpeed="13.89" departDelay="54.95" arrival="181.00" arrivalLane="E3_0" arrivalPos="245.77" arrivalSpeed="12.41" duration="119.00" routeLength="836.52" waitingTime="47.00" waitingCount="4" stopTime="0.00" timeLoss="76.66" rerouteNo="1" devices="tripinfo_id0.85 routing_id0.85" vType="id4" speedFactor="0.98" vaporized=""/>
    <tripinfo id="id0.22" depart="13.00" departLane="E0_1" departPos="4.10" departSpeed="13.89" departDelay="11.17" arrival="182.00" arrivalLane="E3_0" arrivalPos="245.77" arrivalSpeed="13.64" duration="169.00" routeLength="836.52" waitingTime="53.00" waitingCount="10" stopTime="0.00" timeLoss="127.09" rerouteNo="1" devices="tripinfo_id0.22 routing_id0.22" vType="id4" speedFactor="0.97" vaporized=""/>
    <tripinfo id="id0.92" depart="65.00" departLane="E0_0" departPos="4.10" departSpeed="13.89" departDelay="57.36" arrival="184.00" arrivalLane="E3_0" arrivalPos="245.77" arrivalSpeed="12.58" duration="119.00" routeLength="836.52" waitingTime="49.00" waitingCount="4" stopTime="0.00" timeLoss="77.00" rerouteNo="1" devices="tripinfo_id0.92 routing_id0.92" vType="id4" speedFactor="0.83" vaporized=""/>
    <tripinfo id="id0.39" depart="29.00" departLane="E0_1" departPos="4.10" departSpeed="13.89" departDelay="25.76" arrival="186.00" arrivalLane="E3_0" arrivalPos="245.77" arrivalSpeed="13.38" duration="157.00" routeLength="828.12" waitingTime="85.00" waitingCount="12" stopTime="0.00" timeLoss="128.24" rerouteNo="1" devices="tripinfo_id0.39 routing_id0.39" vType="id4" speedFactor="0.90" vaporized=""/>
    <tripinfo id="id0.77" depart="58.00" departLane="E0_2" departPos="4.10" departSpeed="13.89" departDelay="51.61" arrival="188.00" arrivalLane="E3_1" arrivalPos="245.77" arrivalSpeed="12.92" duration="130.00" routeLength="836.52" waitingTime="22.00" waitingCount="10" stopTime="0.00" timeLoss="87.69" rerouteNo="1" devices="tripinfo_id0.77 routing_id0.77" vType="id4" speedFactor="0.98" vaporized=""/>