<?xml version="1.0" encoding="UTF-8"?>

<!-- generated on 2024-04-15 15:43:22 by Eclipse SUMO sumo Version 1.19.0
<configuration xmlns:xsi="http://www.w3.org/2001/XMLSchema-instance" xsi:noNamespaceSchemaLocation="http://sumo.dlr.de/xsd/sumoConfiguration.xsd">

    <input>
        <net-file value=".\xml_data\test1\test1.net.xml"/>
        <route-files value=".\xml_data\test1\test1.rou.xml"/>
    </input>

    <output>
        <tripinfo-output value=".\xml_data\test1\test1.tripinfo.output.xml"/>
        <statistic-output value=".\xml_data\test1\test1.statistic.output.xml"/>
    </output>

</configuration>
-->

<tripinfos xmlns:xsi="http://www.w3.org/2001/XMLSchema-instance" xsi:noNamespaceSchemaLocation="http://sumo.dlr.de/xsd/tripinfo_file.xsd">
    <tripinfo id="id0.0" depart="0.00" departLane="E0_2" departPos="4.10" departSpeed="13.89" departDelay="0.00" arrival="61.00" arrivalLane="E3_1" arrivalPos="245.77" arrivalSpeed="12.63" duration="61.00" routeLength="836.16" waitingTime="0.00" waitingCount="0" stopTime="0.00" timeLoss="3.49" rerouteNo="1" devices="tripinfo_id0.0 routing_id0.0" vType="id0" speedFactor="1.06" vaporized=""/>
    <tripinfo id="id0.6" depart="1.00" departLane="E0_1" departPos="4.10" departSpeed="13.89" departDelay="0.98" arrival="62.00" arrivalLane="E3_0" arrivalPos="245.77" arrivalSpeed="13.59" duration="61.00" routeLength="836.16" waitingTime="0.00" waitingCount="0" stopTime="0.00" timeLoss="2.82" rerouteNo="1" devices="tripinfo_id0.6 routing_id0.6" vType="id0" speedFactor="1.05" vaporized=""/>
    <tripinfo id="id0.3" depart="3.00" departLane="E0_0" departPos="4.10" departSpeed="13.89" departDelay="2.99" arrival="64.00" arrivalLane="E3_0" arrivalPos="245.77" arrivalSpeed="12.81" duration="61.00" routeLength="836.16" waitingTime="0.00" waitingCount="0" stopTime="0.00" timeLoss="4.62" rerouteNo="1" devices="tripinfo_id0.3 routing_id0.3" vType="id0" speedFactor="1.08" vaporized=""/>
    <tripinfo id="id0.4" depart="2.00" departLane="E0_2" departPos="4.10" departSpeed="13.89" departDelay="1.99" arrival="64.00" arrivalLane="E3_1" arrivalPos="245.77" arrivalSpeed="13.80" duration="62.00" routeLength="836.16" waitingTime="0.00" waitingCount="0" stopTime="0.00" timeLoss="3.36" rerouteNo="1" devices="tripinfo_id0.4 routing_id0.4" vType="id0" speedFactor="1.03" vaporized=""/>
    <tripinfo id="id0.5" depart="4.00" departLane="E0_2" departPos="4.10" departSpeed="13.89" departDelay="3.99" arrival="66.00" arrivalLane="E3_1" arrivalPos="245.77" arrivalSpeed="13.09" duration="62.00" routeLength="836.16" waitingTime="0.00" waitingCount="0" stopTime="0.00" timeLoss="6.08" rerouteNo="1" devices="tripinfo_id0.5 routing_id0.5" vType="id0" speedFactor="1.08" vaporized=""/>
    <tripinfo id="id0.1" depart="1.00" departLane="E0_0" departPos="4.10" departSpeed="13.89" departDelay="1.00" arrival="67.00" arrivalLane="E3_0" arrivalPos="245.77" arrivalSpeed="12.69" duration="66.00" routeLength="836.16" waitingTime="0.00" waitingCount="0" stopTime="0.00" timeLoss="5.61" rerouteNo="1" devices="tripinfo_id0.1 routing_id0.1" vType="id0" speedFactor="1.00" vaporized=""/>
    <tripinfo id="id0.9" depart="6.00" departLane="E0_2" departPos="4.10" departSpeed="13.89" departDelay="5.97" arrival="68.00" arrivalLane="E3_2" arrivalPos="245.77" arrivalSpeed="12.84" duration="62.00" routeLength="836.16" waitingTime="0.00" waitingCount="0" stopTime="0.00" timeLoss="5.41" rerouteNo="1" devices="tripinfo_id0.9 routing_id0.9" vType="id0" speedFactor="1.08" vaporized=""/>
    <tripinfo id="id0.2" depart="3.00" departLane="E0_1" departPos="4.10" departSpeed="13.89" departDelay="2.99" arrival="69.00" arrivalLane="E3_0" arrivalPos="245.77" arrivalSpeed="12.51" duration="66.00" routeLength="836.16" waitingTime="0.00" waitingCount="0" stopTime="0.00" timeLoss="6.24" rerouteNo="1" devices="tripinfo_id0.2 routing_id0.2" vType="id0" speedFactor="1.01" vaporized=""/>
    <tripinfo id="id0.8" depart="8.00" departLane="E0_2" departPos="4.10" departSpeed="13.89" departDelay="7.98" arrival="70.00" arrivalLane="E3_1" arrivalPos="245.77" arrivalSpeed="13.56" duration="62.00" routeLength="836.16" waitingTime="0.00" waitingCount="0" stopTime="0.00" timeLoss="3.55" rerouteNo="1" devices="tripinfo_id0.8 routing_id0.8" vType="id0" speedFactor="1.05" vaporized=""/>
    <tripinfo id="id0.10" depart="7.00" departLane="E0_0" departPos="4.10" departSpeed="13.89" departDelay="6.97" arrival="71.00" arrivalLane="E3_0" arrivalPos="245.77" arrivalSpeed="13.12" duration="64.00" routeLength="836.16" waitingTime="0.00" waitingCount="0" stopTime="0.00" timeLoss="8.40" rerouteNo="1" devices="tripinfo_id0.10 routing_id0.10" vType="id0" speedFactor="1.09" vaporized=""/>
    <tripinfo id="id0.18" depart="10.00" departLane="E0_2" departPos="4.10" departSpeed="13.89" departDelay="9.95" arrival="71.00" arrivalLane="E3_1" arrivalPos="245.77" arrivalSpeed="12.87" duration="61.00" routeLength="836.16" waitingTime="0.00" waitingCount="0" stopTime="0.00" timeLoss="7.26" rerouteNo="1" devices="tripinfo_id0.18 routing_id0.18" vType="id0" speedFactor="1.12" vaporized=""/>
    <tripinfo id="id0.12" depart="9.00" departLane="E0_0" departPos="4.10" departSpeed="13.89" departDelay="8.96" arrival="73.00" arrivalLane="E3_0" arrivalPos="245.77" arrivalSpeed="13.73" duration="64.00" routeLength="836.16" waitingTime="0.00" waitingCount="0" stopTime="0.00" timeLoss="5.78" rerouteNo="1" devices="tripinfo_id0.12 routing_id0.12" vType="id0" speedFactor="1.05" vaporized=""/>
    <tripinfo id="id0.19" depart="12.00" departLane="E0_2" departPos="4.10" departSpeed="13.89" departDelay="11.94" arrival="73.00" arrivalLane="E3_2" arrivalPos="245.77" arrivalSpeed="13.80" duration="61.00" routeLength="836.16" waitingTime="0.00" waitingCount="0" stopTime="0.00" timeLoss="8.30" rerouteNo="1" devices="tripinfo_id0.19 routing_id0.19" vType="id0" speedFactor="1.16" vaporized=""/>
    <tripinfo id="id0.17" depart="11.00" departLane="E0_0" departPos="4.10" departSpeed="13.89" departDelay="10.95" arrival="75.00" arrivalLane="E3_0" arrivalPos="245.77" arrivalSpeed="13.59" duration="64.00" routeLength="836.16" waitingTime="0.00" waitingCount="0" stopTime="0.00" timeLoss="2.99" rerouteNo="1" devices="tripinfo_id0.17 routing_id0.17" vType="id0" speedFactor="1.00" vaporized=""/>
    <tripinfo id="id0.7" depart="5.00" departLane="E0_0" departPos="4.10" departSpeed="13.89" departDelay="4.98" arrival="76.00" arrivalLane="E3_0" arrivalPos="245.77" arrivalSpeed="13.26" duration="71.00" routeLength="836.16" waitingTime="0.00" waitingCount="0" stopTime="0.00" timeLoss="20.76" rerouteNo="1" devices="tripinfo_id0.7 routing_id0.7" vType="id0" speedFactor="1.20" vaporized=""/>
    <tripinfo id="id0.16" depart="9.00" departLane="E0_1" departPos="4.10" departSpeed="13.89" departDelay="8.95" arrival="76.00" arrivalLane="E3_1" arrivalPos="245.77" arrivalSpeed="12.67" duration="67.00" routeLength="836.16" waitingTime="0.00" waitingCount="0" stopTime="0.00" timeLoss="6.74" rerouteNo="1" devices="tripinfo_id0.16 routing_id0.16" vType="id0" speedFactor="1.00" vaporized=""/>
    <tripinfo id="id0.11" depart="5.00" departLane="E0_1" departPos="4.10" departSpeed="13.89" departDelay="4.97" arrival="78.00" arrivalLane="E3_0" arrivalPos="245.77" arrivalSpeed="13.02" duration="73.00" routeLength="836.16" waitingTime="0.00" waitingCount="0" stopTime="0.00" timeLoss="14.08" rerouteNo="1" devices="tripinfo_id0.11 routing_id0.11" vType="id0" speedFactor="1.03" vaporized=""/>
    <tripinfo id="id0.20" depart="14.00" departLane="E0_2" departPos="4.10" departSpeed="13.89" departDelay="13.94" arrival="78.00" arrivalLane="E3_1" arrivalPos="245.77" arrivalSpeed="13.13" duration="64.00" routeLength="836.16" waitingTime="0.00" waitingCount="0" stopTime="0.00" timeLoss="4.53" rerouteNo="1" devices="tripinfo_id0.20 routing_id0.20" vType="id0" speedFactor="1.02" vaporized=""/>
    <tripinfo id="id0.14" depart="7.00" departLane="E0_1" departPos="4.10" departSpeed="13.89" departDelay="6.96" arrival="80.00" arrivalLane="E3_0" arrivalPos="245.77" arrivalSpeed="13.45" duration="73.00" routeLength="836.16" waitingTime="0.00" waitingCount="0" stopTime="0.00" timeLoss="12.77" rerouteNo="1" devices="tripinfo_id0.14 routing_id0.14" vType="id0" speedFactor="1.00" vaporized=""/>
    <tripinfo id="id0.28" depart="16.00" departLane="E0_2" departPos="4.10" departSpeed="13.89" departDelay="15.92" arrival="80.00" arrivalLane="E3_1" arrivalPos="245.77" arrivalSpeed="13.50" duration="64.00" routeLength="836.16" waitingTime="0.00" waitingCount="0" stopTime="0.00" timeLoss="10.37" rerouteNo="1" devices="tripinfo_id0.28 routing_id0.28" vType="id0" speedFactor="1.13" vaporized=""/>
    <tripinfo id="id0.25" depart="18.00" departLane="E0_2" departPos="4.10" departSpeed="13.89" departDelay="17.93" arrival="81.00" arrivalLane="E3_2" arrivalPos="245.77" arrivalSpeed="12.93" duration="63.00" routeLength="836.16" waitingTime="0.00" waitingCount="0" stopTime="0.00" timeLoss="7.62" rerouteNo="1" devices="tripinfo_id0.25 routing_id0.25" vType="id0" speedFactor="1.10" vaporized=""/>
    <tripinfo id="id0.30" depart="19.00" departLane="E0_0" departPos="4.10" departSpeed="13.89" departDelay="18.91" arrival="82.00" arrivalLane="E3_0" arrivalPos="245.77" arrivalSpeed="12.69" duration="63.00" routeLength="836.16" waitingTime="0.00" waitingCount="0" stopTime="0.00" timeLoss="11.79" rerouteNo="1" devices="tripinfo_id0.30 routing_id0.30" vType="id0" speedFactor="1.18" vaporized=""/>
    <tripinfo id="id0.24" depart="13.00" departLane="E0_0" departPos="4.10" departSpeed="13.89" departDelay="12.93" arrival="84.00" arrivalLane="E3_0" arrivalPos="245.77" arrivalSpeed="13.51" duration="71.00" routeLength="836.16" waitingTime="0.00" waitingCount="0" stopTime="0.00" timeLoss="10.49" rerouteNo="1" devices="tripinfo_id0.24 routing_id0.24" vType="id0" speedFactor="1.00" vaporized=""/>
    <tripinfo id="id0.33" depart="22.00" departLane="E0_2" departPos="4.10" departSpeed="13.89" departDelay="21.90" arrival="84.00" arrivalLane="E3_2" arrivalPos="245.77" arrivalSpeed="13.08" duration="62.00" routeLength="836.16" waitingTime="0.00" waitingCount="0" stopTime="0.00" timeLoss="10.35" rerouteNo="1" devices="tripinfo_id0.33 routing_id0.33" vType="id0" speedFactor="1.17" vaporized=""/>
    <tripinfo id="id0.36" depart="20.00" departLane="E0_2" departPos="4.10" departSpeed="13.89" departDelay="19.89" arrival="84.00" arrivalLane="E3_1" arrivalPos="245.77" arrivalSpeed="12.45" duration="64.00" routeLength="836.16" waitingTime="0.00" waitingCount="0" stopTime="0.00" timeLoss="3.32" rerouteNo="1" devices="tripinfo_id0.36 routing_id0.36" vType="id0" speedFactor="1.00" vaporized=""/>
    <tripinfo id="id0.13" depart="11.00" departLane="E0_1" departPos="4.10" departSpeed="13.89" departDelay="10.96" arrival="86.00" arrivalLane="E3_1" arrivalPos="245.77" arrivalSpeed="12.75" duration="75.00" routeLength="836.16" waitingTime="0.00" waitingCount="0" stopTime="0.00" timeLoss="20.68" rerouteNo="1" devices="tripinfo_id0.13 routing_id0.13" vType="id0" speedFactor="1.12" vaporized=""/>
    <tripinfo id="id0.15" depart="13.00" departLane="E0_1" departPos="4.10" departSpeed="13.89" departDelay="12.96" arrival="88.00" arrivalLane="E3_0" arrivalPos="245.77" arrivalSpeed="12.69" duration="75.00" routeLength="836.16" waitingTime="0.00" waitingCount="0" stopTime="0.00" timeLoss="15.01" rerouteNo="1" devices="tripinfo_id0.15 routing_id0.15" vType="id0" speedFactor="1.02" vaporized=""/>
    <tripinfo id="id0.39" depart="24.00" departLane="E0_2" departPos="4.10" departSpeed="13.89" departDelay="23.88" arrival="88.00" arrivalLane="E3_1" arrivalPos="245.77" arrivalSpeed="13.81" duration="64.00" routeLength="836.16" waitingTime="0.00" waitingCount="0" stopTime="0.00" timeLoss="3.43" rerouteNo="1" devices="tripinfo_id0.39 routing_id0.39" vType="id0" speedFactor="1.00" vaporized=""/>
    <tripinfo id="id0.34" depart="25.00" departLane="E0_0" departPos="4.10" departSpeed="13.89" departDelay="24.90" arrival="90.00" arrivalLane="E3_0" arrivalPos="245.77" arrivalSpeed="12.69" duration="65.00" routeLength="836.16" waitingTime="0.00" waitingCount="0" stopTime="0.00" timeLoss="4.01" rerouteNo="1" devices="tripinfo_id0.34 routing_id0.34" vType="id0" speedFactor="1.00" vaporized=""/>
    <tripinfo id="id0.37" depart="26.00" departLane="E0_2" departPos="4.10" departSpeed="13.89" departDelay="25.89" arrival="90.00" arrivalLane="E3_1" arrivalPos="245.77" arrivalSpeed="13.55" duration="64.00" routeLength="836.16" waitingTime="0.00" waitingCount="0" stopTime="0.00" timeLoss="12.39" rerouteNo="1" devices="tripinfo_id0.37 routing_id0.37" vType="id0" speedFactor="1.18" vaporized=""/>
    <tripinfo id="id0.32" depart="23.00" departLane="E0_0" departPos="4.10" departSpeed="13.89" departDelay="22.90" arrival="91.00" arrivalLane="E3_0" arrivalPos="245.77" arrivalSpeed="13.64" duration="68.00" routeLength="836.16" waitingTime="0.00" waitingCount="0" stopTime="0.00" timeLoss="8.09" rerouteNo="1" devices="tripinfo_id0.32 routing_id0.32" vType="id0" speedFactor="1.01" vaporized=""/>
    <tripinfo id="id0.48" depart="28.00" departLane="E0_2" departPos="4.10" departSpeed="13.89" departDelay="27.86" arrival="92.00" arrivalLane="E3_1" arrivalPos="245.77" arrivalSpeed="13.76" duration="64.00" routeLength="836.16" waitingTime="0.00" waitingCount="0" stopTime="0.00" timeLoss="3.23" rerouteNo="1" devices="tripinfo_id0.48 routing_id0.48" vType="id0" speedFactor="1.00" vaporized=""/>
    <tripinfo id="id0.46" depart="27.00" departLane="E0_0" departPos="4.10" departSpeed="13.89" departDelay="26.86" arrival="93.00" arrivalLane="E3_0" arrivalPos="245.77" arrivalSpeed="12.74" duration="66.00" routeLength="836.16" waitingTime="0.00" waitingCount="0" stopTime="0.00" timeLoss="5.96" rerouteNo="1" devices="tripinfo_id0.46 routing_id0.46" vType="id0" speedFactor="1.01" vaporized=""/>
    <tripinfo id="id0.49" depart="30.00" departLane="E0_2" departPos="4.10" departSpeed="13.89" departDelay="29.85" arrival="94.00" arrivalLane="E3_1" arrivalPos="245.77" arrivalSpeed="13.00" duration="64.00" routeLength="836.16" waitingTime="0.00" waitingCount="0" stopTime="0.00" timeLoss="4.29" rerouteNo="1" devices="tripinfo_id0.49 routing_id0.49" vType="id0" speedFactor="1.02" vaporized=""/>
    <tripinfo id="id0.26" depart="15.00" departLane="E0_0" departPos="4.10" departSpeed="13.89" departDelay="14.92" arrival="95.00" arrivalLane="E3_0" arrivalPos="245.77" arrivalSpeed="13.07" duration="80.00" routeLength="836.16" waitingTime="0.00" waitingCount="0" stopTime="0.00" timeLoss="19.39" rerouteNo="1" devices="tripinfo_id0.26 routing_id0.26" vType="id0" speedFactor="1.00" vaporized=""/>
    <tripinfo id="id0.31" depart="21.00" departLane="E0_0" departPos="4.10" departSpeed="13.89" departDelay="20.91" arrival="97.00" arrivalLane="E3_0" arrivalPos="245.77" arrivalSpeed="13.83" duration="76.00" routeLength="836.16" waitingTime="0.00" waitingCount="0" stopTime="0.00" timeLoss="23.26" rerouteNo="1" devices="tripinfo_id0.31 routing_id0.31" vType="id0" speedFactor="1.15" vaporized=""/>
    <tripinfo id="id0.47" depart="32.00" departLane="E0_2" departPos="4.10" departSpeed="13.89" departDelay="31.86" arrival="97.00" arrivalLane="E3_1" arrivalPos="245.77" arrivalSpeed="12.66" duration="65.00" routeLength="836.16" waitingTime="0.00" waitingCount="0" stopTime="0.00" timeLoss="3.90" rerouteNo="1" devices="tripinfo_id0.47 routing_id0.47" vType="id0" speedFactor="1.00" vaporized=""/>
    <tripinfo id="id0.50" depart="34.00" departLane="E0_2" departPos="4.10" departSpeed="13.89" departDelay="33.85" arrival="98.00" arrivalLane="E3_1" arrivalPos="245.77" arrivalSpeed="12.76" duration="64.00" routeLength="836.16" waitingTime="0.00" waitingCount="0" stopTime="0.00" timeLoss="3.63" rerouteNo="1" devices="tripinfo_id0.50 routing_id0.50" vType="id0" speedFactor="1.00" vaporized=""/>
    <tripinfo id="id0.52" depart="33.00" departLane="E0_0" departPos="4.10" departSpeed="13.89" departDelay="32.84" arrival="99.00" arrivalLane="E3_0" arrivalPos="245.77" arrivalSpeed="12.59" duration="66.00" routeLength="836.16" waitingTime="0.00" waitingCount="0" stopTime="0.00" timeLoss="6.09" rerouteNo="1" devices="tripinfo_id0.52 routing_id0.52" vType="id0" speedFactor="1.02" vaporized=""/>
    <tripinfo id="id0.53" depart="36.00" departLane="E0_2" departPos="4.10" departSpeed="13.89" departDelay="35.84" arrival="99.00" arrivalLane="E3_2" arrivalPos="245.77" arrivalSpeed="13.52" duration="63.00" routeLength="836.16" waitingTime="0.00" waitingCount="0" stopTime="0.00" timeLoss="8.06" rerouteNo="1" devices="tripinfo_id0.53 routing_id0.53" vType="id0" speedFactor="1.10" vaporized=""/>
    <tripinfo id="id0.51" depart="35.00" departLane="E0_0" departPos="4.10" departSpeed="13.89" departDelay="34.85" arrival="100.00" arrivalLane="E3_1" arrivalPos="245.77" arrivalSpeed="12.69" duration="65.00" routeLength="836.16" waitingTime="0.00" waitingCount="0" stopTime="0.00" timeLoss="13.33" rerouteNo="1" devices="tripinfo_id0.51 routing_id0.51" vType="id0" speedFactor="1.17" vaporized=""/>
    <tripinfo id="id0.56" depart="38.00" departLane="E0_2" departPos="4.10" departSpeed="13.89" departDelay="37.83" arrival="102.00" arrivalLane="E3_1" arrivalPos="245.77" arrivalSpeed="12.79" duration="64.00" routeLength="836.16" waitingTime="0.00" waitingCount="0" stopTime="0.00" timeLoss="3.78" rerouteNo="1" devices="tripinfo_id0.56 routing_id0.56" vType="id0" speedFactor="1.00" vaporized=""/>
    <tripinfo id="id0.58" depart="37.00" departLane="E0_0" departPos="4.10" departSpeed="13.89" departDelay="36.83" arrival="102.00" arrivalLane="E3_0" arrivalPos="245.77" arrivalSpeed="13.48" duration="65.00" routeLength="836.16" waitingTime="0.00" waitingCount="0" stopTime="0.00" timeLoss="5.92" rerouteNo="1" devices="tripinfo_id0.58 routing_id0.58" vType="id0" speedFactor="1.02" vaporized=""/>
    <tripinfo id="id0.57" depart="39.00" departLane="E0_0" departPos="4.10" departSpeed="13.89" departDelay="38.83" arrival="104.00" arrivalLane="E3_0" arrivalPos="245.77" arrivalSpeed="13.83" duration="65.00" routeLength="836.16" waitingTime="0.00" waitingCount="0" stopTime="0.00" timeLoss="11.83" rerouteNo="1" devices="tripinfo_id0.57 routing_id0.57" vType="id0" speedFactor="1.14" vaporized=""/>
    <tripinfo id="id0.61" depart="40.00" departLane="E0_2" departPos="4.10" departSpeed="13.89" departDelay="39.82" arrival="104.00" arrivalLane="E3_2" arrivalPos="245.77" arrivalSpeed="12.85" duration="64.00" routeLength="836.16" waitingTime="0.00" waitingCount="0" stopTime="0.00" timeLoss="9.43" rerouteNo="1" devices="tripinfo_id0.61 routing_id0.61" vType="id0" speedFactor="1.12" vaporized=""/>
    <tripinfo id="id0.63" depart="42.00" departLane="E0_2" departPos="4.10" departSpeed="13.89" departDelay="41.81" arrival="105.00" arrivalLane="E3_1" arrivalPos="245.77" arrivalSpeed="13.47" duration="63.00" routeLength="836.16" waitingTime="0.00" waitingCount="0" stopTime="0.00" timeLoss="7.31" rerouteNo="1" devices="tripinfo_id0.63 routing_id0.63" vType="id0" speedFactor="1.09" vaporized=""/>
    <tripinfo id="id0.38" depart="29.00" departLane="E0_0" departPos="4.10" departSpeed="13.89" departDelay="28.89" arrival="106.00" arrivalLane="E3_0" arrivalPos="245.77" arrivalSpeed="12.44" duration="77.00" routeLength="836.16" waitingTime="0.00" waitingCount="0" stopTime="0.00" timeLoss="21.84" rerouteNo="1" devices="tripinfo_id0.38 routing_id0.38" vType="id0" speedFactor="1.10" vaporized=""/>
    <tripinfo id="id0.42" depart="31.00" departLane="E0_0" departPos="4.10" departSpeed="13.89" departDelay="30.87" arrival="107.00" arrivalLane="E3_0" arrivalPos="245.77" arrivalSpeed="13.67" duration="76.00" routeLength="836.16" waitingTime="0.00" waitingCount="0" stopTime="0.00" timeLoss="20.87" rerouteNo="1" devices="tripinfo_id0.42 routing_id0.42" vType="id0" speedFactor="1.09" vaporized=""/>
    <tripinfo id="id0.62" depart="44.00" departLane="E0_2" departPos="4.10" departSpeed="13.89" departDelay="43.81" arrival="107.00" arrivalLane="E3_1" arrivalPos="245.77" arrivalSpeed="12.91" duration="63.00" routeLength="836.16" waitingTime="0.00" waitingCount="0" stopTime="0.00" timeLoss="3.66" rerouteNo="1" devices="tripinfo_id0.62 routing_id0.62" vType="id0" speedFactor="1.02" vaporized=""/>
    <tripinfo id="id0.65" depart="46.00" departLane="E0_2" departPos="4.10" departSpeed="13.89" departDelay="45.81" arrival="109.00" arrivalLane="E3_2" arrivalPos="245.77" arrivalSpeed="13.20" duration="63.00" routeLength="836.16" waitingTime="0.00" waitingCount="0" stopTime="0.00" timeLoss="6.94" rerouteNo="1" devices="tripinfo_id0.65 routing_id0.65" vType="id0" speedFactor="1.09" vaporized=""/>
    <tripinfo id="id0.71" depart="45.00" departLane="E0_0" departPos="4.10" departSpeed="13.89" departDelay="44.79" arrival="109.00" arrivalLane="E3_0" arrivalPos="245.77" arrivalSpeed="13.79" duration="64.00" routeLength="836.16" waitingTime="0.00" waitingCount="0" stopTime="0.00" timeLoss="7.20" rerouteNo="1" devices="tripinfo_id0.71 routing_id0.71" vType="id0" speedFactor="1.06" vaporized=""/>
    <tripinfo id="id0.27" depart="17.00" departLane="E0_0" departPos="4.10" departSpeed="13.89" departDelay="16.92" arrival="111.00" arrivalLane="E3_0" arrivalPos="245.77" arrivalSpeed="12.94" duration="94.00" routeLength="836.16" waitingTime="1.00" waitingCount="1" stopTime="0.00" timeLoss="35.87" rerouteNo="1" devices="tripinfo_id0.27 routing_id0.27" vType="id0" speedFactor="1.04" vaporized=""/>
    <tripinfo id="id0.85" depart="48.00" departLane="E0_2" departPos="4.10" departSpeed="13.89" departDelay="47.75" arrival="112.00" arrivalLane="E3_1" arrivalPos="245.77" arrivalSpeed="13.40" duration="64.00" routeLength="836.16" waitingTime="0.00" waitingCount="0" stopTime="0.00" timeLoss="3.30" rerouteNo="1" devices="tripinfo_id0.85 routing_id0.85" vType="id0" speedFactor="1.00" vaporized=""/>
    <tripinfo id="id0.60" depart="41.00" departLane="E0_0" departPos="4.10" departSpeed="13.89" departDelay="40.82" arrival="113.00" arrivalLane="E3_0" arrivalPos="245.77" arrivalSpeed="13.12" duration="72.00" routeLength="836.16" waitingTime="0.00" waitingCount="0" stopTime="0.00" timeLoss="15.92" rerouteNo="1" devices="tripinfo_id0.60 routing_id0.60" vType="id0" speedFactor="1.08" vaporized=""/>
    <tripinfo id="id0.67" depart="50.00" departLane="E0_2" departPos="4.10" departSpeed="13.89" departDelay="49.80" arrival="114.00" arrivalLane="E3_1" arrivalPos="245.77" arrivalSpeed="13.13" duration="64.00" routeLength="836.16" waitingTime="0.00" waitingCount="0" stopTime="0.00" timeLoss="3.64" rerouteNo="1" devices="tripinfo_id0.67 routing_id0.67" vType="id0" speedFactor="1.00" vaporized=""/>
    <tripinfo id="id0.70" depart="52.00" departLane="E0_0" departPos="4.10" departSpeed="13.89" departDelay="51.79" arrival="115.00" arrivalLane="E3_0" arrivalPos="245.77" arrivalSpeed="13.56" duration="63.00" routeLength="836.16" waitingTime="0.00" waitingCount="0" stopTime="0.00" timeLoss="3.36" rerouteNo="1" devices="tripinfo_id0.70 routing_id0.70" vType="id0" speedFactor="1.02" vaporized=""/>
    <tripinfo id="id0.80" depart="52.00" departLane="E0_2" departPos="4.10" departSpeed="13.89" departDelay="51.76" arrival="116.00" arrivalLane="E3_2" arrivalPos="245.77" arrivalSpeed="13.31" duration="64.00" routeLength="836.16" waitingTime="0.00" waitingCount="0" stopTime="0.00" timeLoss="4.95" rerouteNo="1" devices="tripinfo_id0.80 routing_id0.80" vType="id0" speedFactor="1.03" vaporized=""/>
    <tripinfo id="id0.21" depart="15.00" departLane="E0_1" departPos="4.10" departSpeed="13.89" departDelay="14.94" arrival="117.00" arrivalLane="E3_0" arrivalPos="245.77" arrivalSpeed="12.93" duration="102.00" routeLength="836.16" waitingTime="1.00" waitingCount="1" stopTime="0.00" timeLoss="41.74" rerouteNo="1" devices="tripinfo_id0.21 routing_id0.21" vType="id0" speedFactor="1.01" vaporized=""/>
    <tripinfo id="id0.75" depart="54.00" departLane="E0_2" departPos="4.10" departSpeed="13.89" departDelay="53.78" arrival="117.00" arrivalLane="E3_1" arrivalPos="245.77" arrivalSpeed="12.90" duration="63.00" routeLength="836.16" waitingTime="0.00" waitingCount="0" stopTime="0.00" timeLoss="6.31" rerouteNo="1" devices="tripinfo_id0.75 routing_id0.75" vType="id0" speedFactor="1.07" vaporized=""/>
    <tripinfo id="id0.73" depart="54.00" departLane="E0_0" departPos="4.10" departSpeed="13.89" departDelay="53.78" arrival="119.00" arrivalLane="E3_0" arrivalPos="245.77" arrivalSpeed="12.63" duration="65.00" routeLength="836.16" waitingTime="0.00" waitingCount="0" stopTime="0.00" timeLoss="7.22" rerouteNo="1" devices="tripinfo_id0.73 routing_id0.73" vType="id0" speedFactor="1.06" vaporized=""/>
    <tripinfo id="id0.81" depart="56.00" departLane="E0_2" departPos="4.10" departSpeed="13.89" departDelay="55.76" arrival="120.00" arrivalLane="E3_1" arrivalPos="245.77" arrivalSpeed="13.70" duration="64.00" routeLength="836.16" waitingTime="0.00" waitingCount="0" stopTime="0.00" timeLoss="3.28" rerouteNo="1" devices="tripinfo_id0.81 routing_id0.81" vType="id0" speedFactor="1.00" vaporized=""/>
    <tripinfo id="id0.82" depart="57.00" departLane="E0_0" departPos="4.10" departSpeed="13.89" departDelay="56.75" arrival="120.00" arrivalLane="E3_0" arrivalPos="245.77" arrivalSpeed="12.62" duration="63.00" routeLength="836.16" waitingTime="0.00" waitingCount="0" stopTime="0.00" timeLoss="3.80" rerouteNo="1" devices="tripinfo_id0.82 routing_id0.82" vType="id0" speedFactor="1.02" vaporized=""/>
    <tripinfo id="id0.78" depart="58.00" departLane="E0_2" departPos="4.10" departSpeed="13.89" departDelay="57.77" arrival="122.00" arrivalLane="E3_1" arrivalPos="245.77" arrivalSpeed="12.66" duration="64.00" routeLength="836.16" waitingTime="0.00" waitingCount="0" stopTime="0.00" timeLoss="3.55" rerouteNo="1" devices="tripinfo_id0.78 routing_id0.78" vType="id0" speedFactor="1.01" vaporized=""/>
    <tripinfo id="id0.29" depart="17.00" departLane="E0_1" departPos="4.10" departSpeed="13.89" departDelay="16.91" arrival="123.00" arrivalLane="E3_0" arrivalPos="245.77" arrivalSpeed="13.26" duration="106.00" routeLength="836.16" waitingTime="1.00" waitingCount="1" stopTime="0.00" timeLoss="45.35" rerouteNo="1" devices="tripinfo_id0.29 routing_id0.29" vType="id0" speedFactor="1.00" vaporized=""/>
    <tripinfo id="id0.89" depart="60.00" departLane="E0_2" departPos="4.10" departSpeed="13.89" departDelay="59.73" arrival="124.00" arrivalLane="E3_1" arrivalPos="245.77" arrivalSpeed="13.76" duration="64.00" routeLength="836.16" waitingTime="0.00" waitingCount="0" stopTime="0.00" timeLoss="4.18" rerouteNo="1" devices="tripinfo_id0.89 routing_id0.89" vType="id0" speedFactor="1.02" vaporized=""/>
    <tripinfo id="id0.90" depart="59.00" departLane="E0_0" departPos="4.10" departSpeed="13.89" departDelay="58.73" arrival="125.00" arrivalLane="E3_0" arrivalPos="245.77" arrivalSpeed="13.01" duration="66.00" routeLength="836.16" waitingTime="0.00" waitingCount="0" stopTime="0.00" timeLoss="6.22" rerouteNo="1" devices="tripinfo_id0.90 routing_id0.90" vType="id0" speedFactor="1.02" vaporized=""/>
    <tripinfo id="id0.84" depart="64.00" departLane="E0_2" departPos="4.10" departSpeed="13.89" departDelay="63.75" arrival="126.00" arrivalLane="E3_2" arrivalPos="245.77" arrivalSpeed="12.55" duration="62.00" routeLength="836.16" waitingTime="0.00" waitingCount="0" stopTime="0.00" timeLoss="9.14" rerouteNo="1" devices="tripinfo_id0.84 routing_id0.84" vType="id0" speedFactor="1.15" vaporized=""/>
    <tripinfo id="id0.88" depart="62.00" departLane="E0_2" departPos="4.10" departSpeed="13.89" departDelay="61.74" arrival="126.00" arrivalLane="E3_1" arrivalPos="245.77" arrivalSpeed="12.40" duration="64.00" routeLength="836.16" waitingTime="0.00" waitingCount="0" stopTime="0.00" timeLoss="3.71" rerouteNo="1" devices="tripinfo_id0.88 routing_id0.88" vType="id0" speedFactor="1.01" vaporized=""/>
    <tripinfo id="id0.83" depart="61.00" departLane="E0_0" departPos="4.10" departSpeed="13.89" departDelay="60.75" arrival="127.00" arrivalLane="E3_0" arrivalPos="245.77" arrivalSpeed="13.61" duration="66.00" routeLength="836.16" waitingTime="0.00" waitingCount="0" stopTime="0.00" timeLoss="5.18" rerouteNo="1" devices="tripinfo_id0.83 routing_id0.83" vType="id0" speedFactor="1.00" vaporized=""/>
    <tripinfo id="id0.94" depart="67.00" departLane="E0_0" departPos="4.10" departSpeed="13.89" departDelay="66.72" arrival="128.00" arrivalLane="E3_1" arrivalPos="245.77" arrivalSpeed="13.74" duration="61.00" routeLength="836.16" waitingTime="0.00" waitingCount="0" stopTime="0.00" timeLoss="5.06" rerouteNo="1" devices="tripinfo_id0.94 routing_id0.94" vType="id0" speedFactor="1.09" vaporized=""/>
    <tripinfo id="id0.93" depart="66.00" departLane="E0_2" departPos="4.10" departSpeed="13.89" departDelay="65.72" arrival="130.00" arrivalLane="E3_1" arrivalPos="245.77" arrivalSpeed="13.27" duration="64.00" routeLength="836.16" waitingTime="0.00" waitingCount="0" stopTime="0.00" timeLoss="3.72" rerouteNo="1" devices="tripinfo_id0.93 routing_id0.93" vType="id0" speedFactor="1.00" vaporized=""/>
    <tripinfo id="id0.22" depart="19.00" departLane="E0_1" departPos="4.10" departSpeed="13.89" departDelay="18.93" arrival="131.00" arrivalLane="E3_0" arrivalPos="245.77" arrivalSpeed="13.11" duration="112.00" routeLength="836.16" waitingTime="3.00" waitingCount="3" stopTime="0.00" timeLoss="51.47" rerouteNo="1" devices="tripinfo_id0.22 routing_id0.22" vType="id0" speedFactor="1.00" vaporized=""/>
    <tripinfo id="id0.95" depart="68.00" departLane="E0_2" departPos="4.10" departSpeed="13.89" departDelay="67.72" arrival="132.00" arrivalLane="E3_2" arrivalPos="245.77" arrivalSpeed="13.48" duration="64.00" routeLength="836.16" waitingTime="0.00" waitingCount="0" stopTime="0.00" timeLoss="6.25" rerouteNo="1" devices="tripinfo_id0.95 routing_id0.95" vType="id0" speedFactor="1.06" vaporized=""/>